Protein in water
78490
    1DC     O5'    1   2.997   4.330   3.337 -0.3630 -0.0083 -0.1284
    1DC     H5T    2   3.017   4.320   3.431 -0.9506 -2.6762 -0.2147
    1DC     C5'    3   2.869   4.277   3.311 -0.2734  0.2906 -1.2116
    1DC    H5'1    4   2.818   4.340   3.237 -0.8712 -0.2090 -1.2361
    1DC    H5'2    5   2.810   4.268   3.402  1.5743 -2.6438 -0.1698
    1DC     C4'    6   2.876   4.135   3.255  0.0885 -0.2462  0.1528
    1DC     H4'    7   2.772   4.112   3.230 -0.2005 -0.9092  1.8564
    1DC     O4'    8   2.948   4.127   3.134  0.4355  0.0409  0.3384
    1DC     C1'    9   3.012   4.002   3.123  0.0169 -0.1443 -0.0357
    1DC     H1'   10   2.976   3.950   3.034  0.3080 -0.9495  0.3148
    1DC      N1   11   3.159   4.015   3.121  0.0124 -0.0634  0.1650
    1DC      C6   12   3.217   4.119   3.189  0.5894 -0.0135 -0.3918
    1DC      H6   13   3.158   4.177   3.259 -0.2469 -1.2355 -0.0352
    1DC      C5   14   3.350   4.138   3.182  0.5439  0.4039 -0.1709
    1DC      H5   15   3.399   4.218   3.235  0.6852 -0.1691  0.5621
    1DC      C4   16   3.424   4.050   3.096  0.0459 -0.0077 -0.1804
    1DC      N4   17   3.558   4.056   3.092  0.0768  0.3462  0.9062
    1DC     H41   18   3.609   4.129   3.139  0.9929  1.3054 -1.4277
    1DC     H42   19   3.598   3.987   3.029 -2.4346 -0.1626 -0.2771
    1DC      N3   20   3.368   3.944   3.036 -0.4065  0.2201 -0.1604
    1DC      C2   21   3.235   3.922   3.054 -0.3262 -0.1809 -0.0542
    1DC      O2   22   3.184   3.825   2.998 -0.2351 -0.2470 -0.0223
    1DC     C3'   23   2.936   4.026   3.343  0.2634 -0.1637  0.1355
    1DC     H3'   24   3.028   4.054   3.394  1.4152  1.4810 -2.5980
    1DC     C2'   25   2.968   3.917   3.241 -0.6335 -0.0882 -0.2342
    1DC    H2'1   26   3.041   3.846   3.281  0.1360  1.1616  0.6443
    1DC    H2'2   27   2.872   3.872   3.216 -1.2448  0.5022  0.9396
    1DC     O3'   28   2.848   3.970   3.438  0.0430  0.1504  0.1190
    2DG       P   29   2.889   3.935   3.590  0.1899 -0.1428  0.0132
    2DG     O1P   30   2.761   3.905   3.658  0.1239 -0.0185 -0.0547
    2DG     O2P   31   2.979   4.041   3.640 -0.1228 -0.2737  0.8729
    2DG     O5'   32   2.972   3.800   3.561  0.0768 -0.1273 -0.3956
    2DG     C5'   33   2.920   3.671   3.539 -0.3894 -0.0600  0.2800
    2DG    H5'1   34   2.842   3.665   3.464 -1.9894  0.4618  1.8259
    2DG    H5'2   35   2.869   3.640   3.630 -0.8358 -1.9163 -0.5593
    2DG     C4'   36   3.027   3.566   3.507  0.0618  0.6388 -0.5394
    2DG     H4'   37   2.974   3.471   3.492 -1.6045  1.7352 -2.1768
    2DG     O4'   38   3.097   3.582   3.386  0.6950  0.2514 -0.2270
    2DG     C1'   39   3.228   3.535   3.405  0.6201  0.0318 -0.2429
    2DG     H1'   40   3.247   3.446   3.344 -2.1301 -0.4187 -0.5669
    2DG      N9   41   3.320   3.640   3.356 -0.4031  0.5626 -1.0500
    2DG      C8   42   3.319   3.774   3.384  0.0626  0.2085  0.7790
    2DG      H8   43   3.233   3.820   3.432 -0.7171  1.5432 -1.7467
    2DG      N7   44   3.426   3.836   3.343 -0.1526  0.1035  0.0516
    2DG      C5   45   3.512   3.736   3.299  0.2158  0.0805  0.7997
    2DG      C6   46   3.646   3.736   3.253 -0.0519  0.2629 -0.0093
    2DG      O6   47   3.718   3.832   3.228 -0.1136  0.3533  0.1529
    2DG      N1   48   3.702   3.610   3.240 -0.2116  0.1779  0.1245
    2DG      H1   49   3.794   3.604   3.199 -0.4405 -0.0868 -0.3618
    2DG      C2   50   3.627   3.494   3.252  0.0680 -0.1234 -0.8914
    2DG      N2   51   3.687   3.381   3.214 -0.0198 -0.6357  0.4427
    2DG     H21   52   3.781   3.381   3.178 -0.9414 -0.7364 -2.1499
    2DG     H22   53   3.639   3.292   3.219  1.0859 -1.2448  0.5271
    2DG      N3   54   3.495   3.493   3.279  0.2223  0.3049 -0.0815
    2DG      C4   55   3.447   3.616   3.310  0.0255  0.1333  0.3055
    2DG     C3'   56   3.127   3.542   3.619 -0.4676  0.4703 -0.0991
    2DG     H3'   57   3.151   3.635   3.671  1.6939  0.0472 -0.2539
    2DG     C2'   58   3.254   3.493   3.550 -0.5378  0.1432  0.0011
    2DG    H2'1   59   3.348   3.531   3.590 -0.0497 -0.8639 -0.1750
    2DG    H2'2   60   3.268   3.386   3.562  1.4773  0.3916  0.2008
    2DG     O3'   61   3.092   3.436   3.705  0.4784  0.0269 -0.2459
    3DA       P   62   3.154   3.440   3.854 -0.0740 -0.2228 -0.0044
    3DA     O1P   63   3.055   3.360   3.930 -0.5188  0.3059 -0.0200
    3DA     O2P   64   3.178   3.577   3.904  0.5063 -0.2616 -0.1722
    3DA     O5'   65   3.295   3.362   3.851 -0.2090 -0.4579 -0.2999
    3DA     C5'   66   3.294   3.223   3.829  0.1701 -0.5739  0.3894
    3DA    H5'1   67   3.216   3.191   3.760 -0.7851  1.6466  0.3825
    3DA    H5'2   68   3.289   3.177   3.928 -0.9889 -0.6054  0.3235
    3DA     C4'   69   3.430   3.194   3.766  0.1133 -0.0391  0.0259
    3DA     H4'   70   3.424   3.092   3.729  0.9469 -0.7028  1.6625
    3DA     O4'   71   3.460   3.268   3.650 -0.3600  0.1194  0.0004
    3DA     C1'   72   3.600   3.279   3.633 -0.3178 -0.0104  0.2646
    3DA     H1'   73   3.626   3.223   3.542  0.3690  0.5776  0.0929
    3DA      N9   74   3.648   3.418   3.624 -0.0115 -0.0869  0.6716
    3DA      C8   75   3.587   3.527   3.679  0.4615  0.1759  0.6801
    3DA      H8   76   3.496   3.523   3.737  1.1275 -0.3994  1.7017
    3DA      N7   77   3.654   3.638   3.662  0.4032  0.1513  0.2713
    3DA      C5   78   3.759   3.607   3.576  0.0982 -0.0493 -0.0285
    3DA      C6   79   3.868   3.672   3.516 -0.0113 -0.0031 -0.1781
    3DA      N6   80   3.890   3.804   3.514 -0.0249 -0.0015 -0.2358
    3DA     H61   81   3.833   3.862   3.574 -0.2649 -0.0905 -0.3766
    3DA     H62   82   3.973   3.841   3.470  1.7976 -1.2727  1.9398
    3DA      N1   83   3.969   3.605   3.461 -0.1789 -0.1282 -0.3345
    3DA      C2   84   3.955   3.473   3.456  0.4075 -0.2149  0.2528
    3DA      H2   85   4.039   3.415   3.420 -0.0278 -0.2184 -0.7741
    3DA      N3   86   3.860   3.397   3.508 -0.3609  0.2907 -0.4002
    3DA      C4   87   3.760   3.470   3.563 -0.4783 -0.0425 -0.1674
    3DA     C3'   88   3.554   3.203   3.854  0.0857 -0.5229  0.1156
    3DA     H3'   89   3.555   3.304   3.895  0.0431 -0.4758  0.0013
    3DA     C2'   90   3.668   3.212   3.752 -0.1283 -0.5186 -0.1242
    3DA    H2'1   91   3.751   3.269   3.792 -0.7526 -0.4399  1.1046
    3DA    H2'2   92   3.700   3.110   3.731 -0.1276 -0.5749  0.1515
    3DA     O3'   93   3.565   3.085   3.930 -0.1200 -0.6995 -0.1243
    4DC       P   94   3.597   3.085   4.088  0.1840 -0.1371 -0.1813
    4DC     O1P   95   3.570   2.951   4.143  0.0057  0.1051  0.3292
    4DC     O2P   96   3.539   3.209   4.144  0.3856 -0.0672 -0.1263
    4DC     O5'   97   3.754   3.113   4.071  0.1172  0.6108  0.3768
    4DC     C5'   98   3.850   3.016   4.035 -0.3179  0.3170  0.0018
    4DC    H5'1   99   3.807   2.962   3.951 -0.3522  2.6218 -1.5510
    4DC    H5'2  100   3.883   2.950   4.115  0.6625  0.2666 -0.4245
    4DC     C4'  101   3.986   3.079   4.004 -0.2223  0.3798  0.5412
    4DC     H4'  102   4.053   2.999   3.973 -1.4551 -0.8156  0.8436
    4DC     O4'  103   3.977   3.163   3.891 -0.1795  0.0081  0.2589
    4DC     C1'  104   4.071   3.267   3.906 -0.0502 -0.0960  0.1724
    4DC     H1'  105   4.152   3.259   3.833  0.9285  1.5506  1.0299
    4DC      N1  106   4.018   3.403   3.885 -0.2202 -0.1438  0.2850
    4DC      C6  107   3.897   3.444   3.933  0.1331  0.6920  0.4761
    4DC      H6  108   3.835   3.376   3.989  0.4995 -0.8221 -0.8787
    4DC      C5  109   3.856   3.573   3.925 -0.2948  0.5194 -0.1596
    4DC      H5  110   3.763   3.606   3.969  1.2484  2.0741  2.1099
    4DC      C4  111   3.943   3.664   3.858  0.3391  0.0693  0.0462
    4DC      N4  112   3.913   3.794   3.842 -0.0314 -0.0142  0.0707
    4DC     H41  113   3.817   3.822   3.854 -0.1585 -0.3695 -0.0774
    4DC     H42  114   3.985   3.858   3.812 -0.4571  0.6077  0.3589
    4DC      N3  115   4.069   3.628   3.827  0.3747  0.5048 -0.3232
    4DC      C2  116   4.104   3.497   3.832 -0.5814  0.2631  0.4183
    4DC      O2  117   4.223   3.475   3.811 -0.7313  0.1220 -0.3352
    4DC     C3'  118   4.052   3.164   4.112 -0.2740  0.5239  0.4588
    4DC     H3'  119   3.972   3.207   4.173 -0.4788 -0.1562  0.6830
    4DC     C2'  120   4.141   3.266   4.042  0.6053 -0.6443 -0.1598
    4DC    H2'1  121   4.139   3.363   4.092 -2.2477 -0.5179 -0.3477
    4DC    H2'2  122   4.238   3.219   4.032  2.5597  2.6299  1.6628
    4DC     O3'  123   4.133   3.085   4.195 -0.0392  0.3308  0.0455
    5DT       P  124   4.179   3.141   4.339 -0.0370  0.3043  0.0557
    5DT     O1P  125   4.221   3.020   4.413 -1.1142 -0.0104  0.1582
    5DT     O2P  126   4.075   3.228   4.398 -0.3714 -0.2974  0.3574
    5DT     O5'  127   4.308   3.236   4.326  0.2531 -0.1039 -0.0882
    5DT     C5'  128   4.436   3.183   4.297  0.0726 -0.6534  0.1249
    5DT    H5'1  129   4.420   3.124   4.207  1.3955 -1.3385  0.3161
    5DT    H5'2  130   4.457   3.117   4.381  2.2733  2.2086  1.9998
    5DT     C4'  131   4.539   3.281   4.244 -0.1312 -0.3181  0.3451
    5DT     H4'  132   4.633   3.238   4.210  0.4883  2.4424 -1.8614
    5DT     O4'  133   4.481   3.348   4.134  0.4310  0.0662  0.2776
    5DT     C1'  134   4.538   3.475   4.115  0.1901  0.1550  0.1448
    5DT     H1'  135   4.591   3.479   4.019 -0.9896  0.6687 -0.4990
    5DT      N1  136   4.431   3.577   4.124 -0.0076 -0.0736  0.3689
    5DT      C6  137   4.314   3.553   4.190 -0.1048  0.4012  0.3650
    5DT      H6  138   4.310   3.465   4.253  0.7755 -0.1986 -0.3958
    5DT      C5  139   4.207   3.633   4.169 -0.4095 -0.2173 -0.4801
    5DT      C7  140   4.079   3.596   4.240 -0.2454  0.0513 -0.0396
    5DT     H71  141   4.088   3.492   4.273  0.5271 -0.1019 -0.7038
    5DT     H72  142   4.058   3.667   4.320 -0.2934  0.7894 -0.7080
    5DT     H73  143   4.004   3.608   4.162 -1.9314 -0.1069  1.4790
    5DT      C4  144   4.220   3.757   4.097 -0.5053 -0.3161 -0.6672
    5DT      O4  145   4.129   3.837   4.075 -0.3180  0.0943  0.0175
    5DT      N3  146   4.348   3.781   4.049 -0.2153 -0.6866 -0.0896
    5DT      H3  147   4.363   3.871   4.006  1.3907 -0.8338  0.0969
    5DT      C2  148   4.457   3.696   4.059  0.1769 -0.1445  0.3105
    5DT      O2  149   4.563   3.731   4.008 -0.1535  0.7039  0.2007
    5DT     C3'  150   4.574   3.397   4.338  0.0198 -0.0692 -0.0133
    5DT     H3'  151   4.485   3.436   4.388 -0.7382 -1.3154 -0.3333
    5DT     C2'  152   4.635   3.487   4.232  0.4613 -0.3768 -0.0220
    5DT    H2'1  153   4.636   3.591   4.266 -2.1434 -0.4310  0.4110
    5DT    H2'2  154   4.734   3.446   4.211  1.2882  1.5328 -0.1631
    5DT     O3'  155   4.670   3.349   4.429 -0.0907  0.1070  0.1958
    6DC       P  156   4.671   3.412   4.577  0.1293  0.0025  0.2393
    6DC     O1P  157   4.774   3.342   4.657 -0.0878 -0.7332 -0.1137
    6DC     O2P  158   4.529   3.417   4.620 -0.0171  0.2260 -0.2645
    6DC     O5'  159   4.726   3.562   4.558 -0.1020  0.0366 -0.1731
    6DC     C5'  160   4.862   3.594   4.538  0.1030 -0.4118  0.4658
    6DC    H5'1  161   4.883   3.537   4.447  0.6452 -0.5767  0.6915
    6DC    H5'2  162   4.930   3.558   4.616 -0.0593  3.1760  2.4662
    6DC     C4'  163   4.865   3.743   4.507 -0.2593 -0.5393 -0.2038
    6DC     H4'  164   4.969   3.766   4.485 -0.9267  1.6632 -1.3052
    6DC     O4'  165   4.793   3.773   4.389  0.0027 -0.2181 -0.2820
    6DC     C1'  166   4.749   3.907   4.395 -0.3067 -0.3251 -0.1130
    6DC     H1'  167   4.797   3.954   4.308  0.7124 -2.0246 -0.5184
    6DC      N1  168   4.603   3.924   4.392 -0.2491  0.3379  0.5891
    6DC      C6  169   4.521   3.821   4.427 -0.3904  0.1501 -0.2668
    6DC      H6  170   4.567   3.730   4.461  1.5589  0.6229 -1.5388
    6DC      C5  171   4.387   3.840   4.434 -0.4856 -0.3216 -0.7636
    6DC      H5  172   4.331   3.764   4.486  0.2866  0.8753  1.9922
    6DC      C4  173   4.339   3.966   4.385 -0.1191  0.2066  0.1995
    6DC      N4  174   4.207   3.990   4.379 -0.1078  0.3434  0.5163
    6DC     H41  175   4.140   3.922   4.411  1.3618 -0.7627  1.3578
    6DC     H42  176   4.187   4.082   4.342  2.5441  0.4059 -1.0041
    6DC      N3  177   4.417   4.070   4.354  0.1182 -0.0847 -0.1907
    6DC      C2  178   4.550   4.046   4.353  0.1545  0.1312 -0.6378
    6DC      O2  179   4.624   4.138   4.319 -0.3923  0.7367 -0.2052
    6DC     C3'  180   4.830   3.844   4.617  0.2039  0.1479 -0.6817
    6DC     H3'  181   4.733   3.824   4.662 -0.6864  0.8464 -2.1921
    6DC     C2'  182   4.806   3.963   4.525 -0.3923  0.2934 -0.3383
    6DC    H2'1  183   4.744   4.042   4.568 -0.4760  0.9210 -1.5630
    6DC    H2'2  184   4.897   4.022   4.519 -1.0676  1.4092  0.0669
    6DC     O3'  185   4.939   3.864   4.704 -0.0677  0.8459 -0.4998
    7DT       P  186   4.913   3.915   4.854  0.0016  0.0434 -0.2085
    7DT     O1P  187   5.041   3.910   4.928 -0.0238  0.0155 -0.1669
    7DT     O2P  188   4.795   3.835   4.895  0.1757  0.0613  0.3286
    7DT     O5'  189   4.876   4.067   4.817  0.2655  0.0441 -0.4729
    7DT     C5'  190   4.970   4.170   4.799  0.3055  0.0769 -0.0848
    7DT    H5'1  191   5.027   4.146   4.709 -1.0060 -1.5425 -0.5217
    7DT    H5'2  192   5.035   4.177   4.887  1.0710  1.5392 -0.7209
    7DT     C4'  193   4.891   4.297   4.771 -0.2323 -0.2480 -0.0438
    7DT     H4'  194   4.958   4.379   4.746 -2.0593  1.9697  1.8192
    7DT     O4'  195   4.800   4.278   4.665  0.3587  0.1173 -0.6222
    7DT     C1'  196   4.687   4.363   4.670  0.1589 -0.1843 -0.0064
    7DT     H1'  197   4.687   4.431   4.585  0.0547  1.6449  1.4060
    7DT      N1  198   4.555   4.299   4.684 -0.0045  0.0479 -0.4602
    7DT      C6  199   4.547   4.171   4.732  0.0474  0.1988 -0.0420
    7DT      H6  200   4.638   4.121   4.763  1.2097 -0.1507 -3.5178
    7DT      C5  201   4.432   4.101   4.723  0.0076  0.2029  0.4226
    7DT      C7  202   4.422   3.959   4.773  0.2217  0.1516  0.3182
    7DT     H71  203   4.511   3.936   4.832  2.1126 -2.4296 -3.1782
    7DT     H72  204   4.336   3.954   4.840  0.4153 -0.2198  0.5427
    7DT     H73  205   4.400   3.892   4.691 -2.9550  2.0276 -0.5167
    7DT      C4  206   4.311   4.165   4.676  0.2090  0.2081 -0.0946
    7DT      O4  207   4.206   4.103   4.667  0.0256  0.4548  0.3037
    7DT      N3  208   4.330   4.295   4.629  0.0324  0.0792 -0.5242
    7DT      H3  209   4.250   4.345   4.593 -0.9763 -1.8202 -1.1043
    7DT      C2  210   4.447   4.369   4.636  0.0148  0.0990 -0.4294
    7DT      O2  211   4.444   4.485   4.593  0.4551 -0.0077 -0.7459
    7DT     C3'  212   4.805   4.357   4.882  0.3197  0.3426  0.0737
    7DT     H3'  213   4.756   4.280   4.941  0.0134  0.1030 -0.4882
    7DT     C2'  214   4.714   4.444   4.797 -0.2589 -0.2238  0.1073
    7DT    H2'1  215   4.623   4.477   4.847 -0.9645  1.4651 -2.1008
    7DT    H2'2  216   4.755   4.537   4.758 -3.0150  0.1022 -2.4863
    7DT     O3'  217   4.881   4.438   4.969  0.2074  0.4635  0.0595
    8DA       P  218   4.834   4.465   5.120 -0.4121  0.1393 -0.0745
    8DA     O1P  219   4.937   4.539   5.195  0.1620 -0.4764 -0.2503
    8DA     O2P  220   4.793   4.332   5.173  0.2141  0.0150  0.1064
    8DA     O5'  221   4.705   4.562   5.111 -0.0671  0.6370  0.3240
    8DA     C5'  222   4.719   4.693   5.063 -0.1461  0.4464 -0.2196
    8DA    H5'1  223   4.761   4.695   4.962  0.2162  0.7008 -0.0657
    8DA    H5'2  224   4.787   4.756   5.121  2.9407 -1.5398 -1.4144
    8DA     C4'  225   4.581   4.758   5.053 -0.1772  0.3891 -0.1549
    8DA     H4'  226   4.591   4.858   5.010  1.0651  0.0560 -0.7057
    8DA     O4'  227   4.499   4.688   4.962  0.1482 -0.5651  0.2698
    8DA     C1'  228   4.368   4.684   5.014 -0.1137  0.0556 -0.3286
    8DA     H1'  229   4.314   4.760   4.958  0.9612  0.6732 -0.5570
    8DA      N9  230   4.303   4.555   4.984 -0.1859  0.1529 -0.5937
    8DA      C8  231   4.362   4.433   5.001  0.0897  0.3637 -0.0190
    8DA      H8  232   4.464   4.429   5.036 -0.8919  1.3230  3.3602
    8DA      N7  233   4.282   4.336   4.965  0.0458  0.2880  0.2770
    8DA      C5  234   4.164   4.398   4.925 -0.0186  0.0479  0.0944
    8DA      C6  235   4.038   4.355   4.882 -0.2071  0.4889  0.1995
    8DA      N6  236   3.993   4.228   4.877  0.1960  0.3299  0.5550
    8DA     H61  237   4.065   4.158   4.879  1.4059  1.4275 -1.0861
    8DA     H62  238   3.899   4.199   4.854  0.6813 -0.2305 -0.8236
    8DA      N1  239   3.942   4.445   4.860 -0.2383  0.5111  0.4262
    8DA      C2  240   3.970   4.574   4.863 -0.3417  0.5537 -0.2638
    8DA      H2  241   3.895   4.649   4.840  1.0271  1.9331 -0.4090
    8DA      N3  242   4.086   4.628   4.899 -0.3278  0.1548  0.2873
    8DA      C4  243   4.179   4.534   4.928  0.0315  0.0774 -1.0479
    8DA     C3'  244   4.515   4.764   5.190  0.0796 -0.7249  0.0307
    8DA     H3'  245   4.567   4.701   5.262 -2.0185 -1.3233  1.1285
    8DA     C2'  246   4.371   4.720   5.162 -0.1617  0.2919 -0.3859
    8DA    H2'1  247   4.345   4.633   5.221 -2.1086  1.0860 -0.0135
    8DA    H2'2  248   4.292   4.789   5.191 -0.5085  0.2812 -1.2800
    8DA     O3'  249   4.511   4.898   5.235  0.5025 -0.6998 -0.0101
    9DC       P  250   4.504   4.934   5.392 -0.0762  0.1454 -0.2248
    9DC     O1P  251   4.566   5.067   5.410 -0.0625 -0.0245  1.0969
    9DC     O2P  252   4.553   4.821   5.475  0.3866  0.0884 -0.5776
    9DC     O5'  253   4.345   4.946   5.417  0.0639  0.3726  0.5934
    9DC     C5'  254   4.267   5.056   5.377  0.0516  0.1987  0.1291
    9DC    H5'1  255   4.282   5.080   5.271 -1.1922 -1.3053 -0.4187
    9DC    H5'2  256   4.276   5.142   5.443  0.9704  0.8627 -0.8164
    9DC     C4'  257   4.119   5.021   5.365  0.1213 -0.2225  0.4829
    9DC     H4'  258   4.076   5.116   5.332  0.8940 -0.2779 -0.7764
    9DC     O4'  259   4.095   4.926   5.263 -0.0169  0.1919  0.1264
    9DC     C1'  260   3.975   4.859   5.295  0.2529 -0.2734  0.1674
    9DC     H1'  261   3.891   4.908   5.244 -1.1741 -0.9384  1.7830
    9DC      N1  262   3.978   4.713   5.275  0.0082 -0.2639  0.0582
    9DC      C6  263   4.085   4.637   5.314  0.4583  0.1998 -0.2667
    9DC      H6  264   4.176   4.681   5.352 -0.2071  0.9273  0.5346
    9DC      C5  265   4.080   4.504   5.293  0.0096  0.2875 -0.7434
    9DC      H5  266   4.173   4.453   5.313 -0.2484 -0.1739 -0.7122
    9DC      C4  267   3.963   4.454   5.227 -0.4004  0.0200  0.1794
    9DC      N4  268   3.957   4.324   5.195  0.0194 -0.0028  0.1900
    9DC     H41  269   4.036   4.271   5.231  0.7070 -0.6147 -2.0448
    9DC     H42  270   3.880   4.277   5.150  1.0147 -2.9625  1.3301
    9DC      N3  271   3.856   4.525   5.191 -0.0564  0.5663  0.2239
    9DC      C2  272   3.864   4.658   5.218 -0.5110  0.5934  0.2427
    9DC      O2  273   3.774   4.729   5.174 -0.7109  0.0065 -0.3088
    9DC     C3'  274   4.057   4.977   5.497 -0.0982 -0.4817  0.2939
    9DC     H3'  275   4.138   4.923   5.547  0.0026 -0.2002  0.4362
    9DC     C2'  276   3.951   4.882   5.444  0.1361 -0.7019  0.2154
    9DC    H2'1  277   3.951   4.788   5.499  0.3183 -1.5745 -1.2056
    9DC    H2'2  278   3.851   4.926   5.443  0.7760  0.8020 -0.4615
    9DC     O3'  279   3.994   5.076   5.574  0.5618  0.1459  0.0361
   10DG       P  280   3.949   5.041   5.725 -0.2509  0.0593 -0.2239
   10DG     O1P  281   3.927   5.171   5.794  0.4201 -0.0270  0.1574
   10DG     O2P  282   4.053   4.950   5.778 -0.3569  0.0962  0.0470
   10DG     O5'  283   3.805   4.971   5.717 -0.3681  0.2376  0.2684
   10DG     C5'  284   3.683   5.036   5.689 -0.2578  0.0759 -0.6137
   10DG    H5'1  285   3.706   5.112   5.614  1.1753  0.7461  0.4771
   10DG    H5'2  286   3.651   5.084   5.781  1.4688 -0.2946  0.2094
   10DG     C4'  287   3.566   4.947   5.647 -0.3765 -0.0652  0.0125
   10DG     H4'  288   3.484   5.018   5.640 -0.1859  0.2370  0.7075
   10DG     O4'  289   3.566   4.868   5.530 -0.2572  0.5024 -0.3746
   10DG     C1'  290   3.494   4.749   5.553  0.4360  0.1021 -0.2399
   10DG     H1'  291   3.418   4.731   5.477 -1.8210 -0.1724  1.9506
   10DG      N9  292   3.583   4.632   5.542  0.7535  0.3909 -0.8058
   10DG      C8  293   3.718   4.621   5.564  0.5662  0.4468  0.4655
   10DG      H8  294   3.770   4.708   5.601 -2.1312  4.1584 -3.4817
   10DG      N7  295   3.771   4.506   5.530 -0.2338  0.1461  0.2075
   10DG      C5  296   3.660   4.432   5.492 -0.1685 -0.0188  0.3356
   10DG      C6  297   3.651   4.295   5.456  0.3947  0.0047  0.0924
   10DG      O6  298   3.738   4.209   5.445  0.2537 -0.1282  0.0041
   10DG      N1  299   3.519   4.254   5.443  0.2717  0.2506  0.5605
   10DG      H1  300   3.499   4.164   5.402 -2.0443  0.2835  1.4794
   10DG      C2  301   3.407   4.333   5.458 -0.0452 -0.0572 -0.1433
   10DG      N2  302   3.289   4.275   5.434 -0.0645 -0.0388 -0.0958
   10DG     H21  303   3.282   4.175   5.418  2.6130 -0.2681 -0.3405
   10DG     H22  304   3.208   4.336   5.435  0.7333  1.0392  0.3818
   10DG      N3  305   3.417   4.461   5.497  0.2049 -0.2985  0.6061
   10DG      C4  306   3.545   4.506   5.503  0.0220  0.3171  0.1108
   10DG     C3'  307   3.523   4.858   5.764  0.5492 -0.0879  0.3442
   10DG     H3'  308   3.606   4.799   5.804  0.1498 -0.8993 -0.0006
   10DG     C2'  309   3.427   4.766   5.689  0.5263  0.3984 -0.2320
   10DG    H2'1  310   3.415   4.674   5.746 -1.2281 -0.6299 -2.1344
   10DG    H2'2  311   3.324   4.798   5.670 -0.6065 -2.8297 -0.0840
   10DG     O3'  312   3.448   4.929   5.860 -0.3933 -0.3006 -0.2214
   11DG       P  313   3.412   4.858   5.999  0.1015  0.3658  0.2541
   11DG     O1P  314   3.320   4.946   6.075 -0.4448  0.2204 -0.2324
   11DG     O2P  315   3.536   4.821   6.070  0.0910 -0.0691  0.0437
   11DG     O5'  316   3.334   4.718   5.986 -0.1465  0.5669 -0.4890
   11DG     C5'  317   3.198   4.714   5.951 -0.1703 -0.1738 -0.3288
   11DG    H5'1  318   3.183   4.777   5.864  0.9348 -1.6825 -1.6541
   11DG    H5'2  319   3.151   4.755   6.041  0.5422 -1.1617  0.5240
   11DG     C4'  320   3.146   4.572   5.926  0.2631 -0.4403  0.2537
   11DG     H4'  321   3.040   4.598   5.918  0.5230  0.3797 -0.8090
   11DG     O4'  322   3.183   4.515   5.803 -0.3836 -0.0092 -0.1462
   11DG     C1'  323   3.198   4.377   5.826  0.2855  0.1262  0.2393
   11DG     H1'  324   3.139   4.322   5.754 -0.4856  0.3211  0.7108
   11DG      N9  325   3.338   4.330   5.818  0.3166  0.2053  0.3216
   11DG      C8  326   3.454   4.396   5.850  0.4694  0.1837 -0.1795
   11DG      H8  327   3.454   4.501   5.875 -0.8179  0.5923 -1.7969
   11DG      N7  328   3.562   4.329   5.820  0.3147 -0.4791  0.6880
   11DG      C5  329   3.513   4.208   5.770  0.1138  0.0229 -0.3643
   11DG      C6  330   3.581   4.090   5.729  0.2198 -0.0980  0.1572
   11DG      O6  331   3.700   4.076   5.700  0.1123 -0.0428 -0.3077
   11DG      N1  332   3.495   3.982   5.721 -0.3023  0.3480 -0.3112
   11DG      H1  333   3.531   3.894   5.688  2.1044  1.5057 -1.0028
   11DG      C2  334   3.357   3.993   5.721 -0.3249  0.0782  0.1219
   11DG      N2  335   3.291   3.883   5.683 -0.3047  0.0197  0.2531
   11DG     H21  336   3.337   3.793   5.679 -0.4974 -0.1201  0.9817
   11DG     H22  337   3.190   3.890   5.681 -0.3413 -0.4590  0.3513
   11DG      N3  338   3.290   4.107   5.742  0.0194  0.2439  0.3316
   11DG      C4  339   3.376   4.205   5.776  0.1341  0.1970  0.1780
   11DG     C3'  340   3.166   4.473   6.040  0.6123  0.0578  0.6276
   11DG     H3'  341   3.267   4.475   6.082  0.1532 -1.0106  1.8526
   11DG     C2'  342   3.143   4.343   5.964 -0.4555  0.5739  0.0555
   11DG    H2'1  343   3.201   4.263   6.009  1.8691  1.3212 -1.4239
   11DG    H2'2  344   3.039   4.311   5.953  0.0409 -1.0712 -0.0140
   11DG     O3'  345   3.066   4.495   6.137  0.1160  0.1259  0.0959
   12DA       P  346   3.084   4.426   6.281  0.1013 -0.1557 -0.0364
   12DA     O1P  347   2.963   4.461   6.358  0.0841 -0.2514 -0.0201
   12DA     O2P  348   3.212   4.477   6.334  0.1684 -0.1306 -0.2207
   12DA     O5'  349   3.098   4.266   6.267  0.6087 -0.0863 -0.3542
   12DA     C5'  350   2.977   4.199   6.242  0.1699  0.5647  0.0091
   12DA    H5'1  351   2.921   4.247   6.162 -0.2947 -1.0814 -0.7059
   12DA    H5'2  352   2.911   4.186   6.329  0.3471 -1.4234 -0.1162
   12DA     C4'  353   3.005   4.056   6.198 -0.1280  0.5860 -0.2541
   12DA     H4'  354   2.911   4.006   6.175  0.2708 -0.2145 -0.1697
   12DA     O4'  355   3.083   4.044   6.081 -0.5037 -0.2495 -0.4295
   12DA     C1'  356   3.160   3.926   6.081 -0.0269  0.0598 -0.1570
   12DA     H1'  357   3.128   3.866   5.997  0.2563  1.7221 -1.5014
   12DA      N9  358   3.305   3.956   6.081 -0.0528  0.1918  0.0514
   12DA      C8  359   3.367   4.073   6.112 -0.0085  0.1094  0.2734
   12DA      H8  360   3.316   4.162   6.148 -1.4458 -0.0606 -1.2465
   12DA      N7  361   3.497   4.063   6.112 -0.0290 -0.1487  0.0400
   12DA      C5  362   3.517   3.934   6.063 -0.0057 -0.2028  0.1891
   12DA      C6  363   3.626   3.862   6.014 -0.1785  0.1415 -0.7201
   12DA      N6  364   3.750   3.913   6.019 -0.0466 -0.2238 -0.2060
   12DA     H61  365   3.755   4.007   6.056 -2.9647  0.8274 -2.1467
   12DA     H62  366   3.834   3.869   5.982  0.9806  0.7506  0.9129
   12DA      N1  367   3.614   3.738   5.964  0.3586 -0.1538 -0.1251
   12DA      C2  368   3.496   3.680   5.959  0.2612  0.0176  0.1400
   12DA      H2  369   3.481   3.578   5.924 -1.4602 -0.9926  3.3596
   12DA      N3  370   3.384   3.738   5.999  0.2529 -0.0025  0.1451
   12DA      C4  371   3.400   3.865   6.043 -0.1537  0.0719  0.0859
   12DA     C3'  372   3.081   3.981   6.308 -0.5684  0.6528  0.0977
   12DA     H3'  373   3.165   4.045   6.334 -1.4362  1.6365  0.5787
   12DA     C2'  374   3.138   3.869   6.221 -0.1931  0.8165  0.1307
   12DA    H2'1  375   3.226   3.822   6.264 -1.3566  0.3229  2.1415
   12DA    H2'2  376   3.062   3.790   6.218 -0.5025  1.1179 -0.0800
   12DA     O3'  377   3.005   3.932   6.415 -0.0772 -0.1553  0.0780
   13DA       P  378   3.065   3.871   6.552 -0.2155 -0.1856  0.1255
   13DA     O1P  379   2.957   3.834   6.645 -0.4175  0.3552  0.1080
   13DA     O2P  380   3.172   3.960   6.601 -0.3688 -0.0791  0.2657
   13DA     O5'  381   3.138   3.732   6.513 -0.5378 -0.1699 -0.5555
   13DA     C5'  382   3.066   3.621   6.465  0.0183 -0.2072 -1.3250
   13DA    H5'1  383   3.016   3.653   6.374 -1.2757 -1.3737 -1.0668
   13DA    H5'2  384   2.998   3.593   6.546 -0.8386  1.6337 -1.3527
   13DA     C4'  385   3.153   3.501   6.429 -0.2990 -0.8070 -0.1446
   13DA     H4'  386   3.096   3.410   6.409 -1.7900 -0.3665  1.7527
   13DA     O4'  387   3.233   3.528   6.316  0.0796 -0.3451  0.2299
   13DA     C1'  388   3.363   3.476   6.331  0.2999 -0.0844 -0.7275
   13DA     H1'  389   3.386   3.412   6.246 -1.6911 -0.0997 -1.3071
   13DA      N9  390   3.464   3.584   6.328  0.0017  0.2154 -0.1868
   13DA      C8  391   3.447   3.712   6.373 -0.2734  0.4633 -0.9871
   13DA      H8  392   3.352   3.751   6.405  0.3131  1.1337 -0.0186
   13DA      N7  393   3.560   3.777   6.374 -0.1187  0.1892  0.1606
   13DA      C5  394   3.652   3.691   6.316 -0.4608  0.0247 -0.1428
   13DA      C6  395   3.790   3.694   6.289 -0.4029  0.2585  0.1776
   13DA      N6  396   3.872   3.800   6.287 -0.1063  0.0258  0.0180
   13DA     H61  397   3.826   3.889   6.295  0.9561  0.4967  1.0765
   13DA     H62  398   3.972   3.798   6.271 -0.1079 -3.0693 -0.2325
   13DA      N1  399   3.854   3.585   6.245 -0.2077  0.5997 -0.3783
   13DA      C2  400   3.784   3.475   6.222 -0.4087  0.5940  0.2652
   13DA      H2  401   3.836   3.390   6.183 -2.2384 -0.4489 -0.0344
   13DA      N3  402   3.655   3.457   6.245 -0.3503 -0.4173 -0.1781
   13DA      C4  403   3.594   3.571   6.285  0.0702 -0.3158  0.1688
   13DA     C3'  404   3.253   3.468   6.540 -0.0305  0.0629 -0.1204
   13DA     H3'  405   3.297   3.554   6.590  1.0317 -0.6949  0.2966
   13DA     C2'  406   3.363   3.396   6.461 -0.0742  0.3592 -0.4532
   13DA    H2'1  407   3.460   3.399   6.511 -0.8375 -0.7512  1.1768
   13DA    H2'2  408   3.347   3.289   6.449 -0.7186  0.5339 -1.2621
   13DA     O3'  409   3.207   3.377   6.637  0.1644  0.0117 -0.0758
   14DG       P  410   3.274   3.348   6.781  0.1122 -0.0160 -0.0571
   14DG     O1P  411   3.182   3.256   6.851 -0.2429  0.2977 -0.1076
   14DG     O2P  412   3.296   3.481   6.843 -0.4818 -0.0179  0.1588
   14DG     O5'  413   3.422   3.285   6.769  0.1222 -0.0036  0.0034
   14DG     C5'  414   3.435   3.151   6.728 -0.3072 -0.1332  0.2817
   14DG    H5'1  415   3.381   3.128   6.636 -1.4831 -0.8199  1.1108
   14DG    H5'2  416   3.401   3.081   6.804 -0.1688 -1.4425 -0.8316
   14DG     C4'  417   3.580   3.117   6.694 -0.2927  0.2334 -0.0350
   14DG     H4'  418   3.574   3.010   6.676  0.0453  0.2330 -0.1563
   14DG     O4'  419   3.626   3.184   6.579 -0.1346  0.5130  0.1903
   14DG     C1'  420   3.765   3.205   6.593  0.1002 -0.3922 -0.6674
   14DG     H1'  421   3.829   3.150   6.524  2.1798 -1.4433  1.9123
   14DG      N9  422   3.791   3.350   6.582 -0.0523 -0.2940  0.1712
   14DG      C8  423   3.709   3.456   6.612  0.1113 -0.0028 -0.4038
   14DG      H8  424   3.608   3.442   6.647 -0.0955 -0.6019 -1.2148
   14DG      N7  425   3.767   3.572   6.596 -0.1715  0.1966  0.0135
   14DG      C5  426   3.901   3.542   6.572 -0.0815 -0.0350  0.7849
   14DG      C6  427   4.011   3.624   6.537 -0.2194 -0.2964 -0.3058
   14DG      O6  428   4.014   3.747   6.535  0.3919 -0.3082 -0.1691
   14DG      N1  429   4.127   3.557   6.502 -0.1676 -0.0666 -0.5756
   14DG      H1  430   4.208   3.611   6.474  0.0905 -0.8313 -1.3587
   14DG      C2  431   4.132   3.419   6.498 -0.2706 -0.0672 -0.6771
   14DG      N2  432   4.250   3.359   6.474 -0.1192 -0.0138 -0.0687
   14DG     H21  433   4.335   3.415   6.477 -0.3246  0.3116 -0.2292
   14DG     H22  434   4.259   3.260   6.489  2.0500  0.0282 -0.7496
   14DG      N3  435   4.028   3.341   6.526 -0.2375  0.0890 -0.1007
   14DG      C4  436   3.914   3.406   6.560 -0.1488 -0.0067  0.3702
   14DG     C3'  437   3.681   3.145   6.806 -0.2271 -0.3577  0.0553
   14DG     H3'  438   3.669   3.244   6.849  0.3223 -0.4982  0.5407
   14DG     C2'  439   3.812   3.155   6.729 -0.5198 -0.4396 -0.4655
   14DG    H2'1  440   3.876   3.228   6.778 -2.4778 -0.2771  2.0668
   14DG    H2'2  441   3.869   3.065   6.704 -1.2830 -0.2238 -3.3416
   14DG     O3'  442   3.691   3.058   6.916  0.7382 -0.0967  0.1772
   15DG       P  443   3.765   3.086   7.056  0.3757  0.0881  0.3323
   15DG     O1P  444   3.754   2.968   7.146 -0.5497 -0.0395  0.0643
   15DG     O2P  445   3.720   3.216   7.111  0.4166  0.3178 -0.1728
   15DG     O5'  446   3.922   3.112   7.031  0.4816 -0.4530  0.4086
   15DG     C5'  447   4.009   3.005   7.004  0.1474 -0.5299 -0.4086
   15DG    H5'1  448   3.964   2.951   6.921  0.6886  0.1554 -1.1596
   15DG    H5'2  449   4.025   2.945   7.094 -1.7884 -1.2501 -0.5087
   15DG     C4'  450   4.147   3.057   6.965  0.0434  0.0015 -0.0793
   15DG     H4'  451   4.205   2.968   6.939 -0.4450 -0.2393 -0.3529
   15DG     O4'  452   4.137   3.150   6.859 -0.1182  0.3144  0.2066
   15DG     C1'  453   4.253   3.229   6.849 -0.3090  0.5548 -0.1075
   15DG     H1'  454   4.316   3.197   6.766  0.1854 -2.2227  1.2354
   15DG      N9  455   4.209   3.370   6.846 -0.2527  0.5642 -0.6189
   15DG      C8  456   4.082   3.414   6.873 -0.3300 -0.2341  0.3686
   15DG      H8  457   4.004   3.342   6.896 -0.1887 -0.9855 -1.3723
   15DG      N7  458   4.062   3.542   6.862  0.1345 -0.1984 -0.1002
   15DG      C5  459   4.186   3.588   6.820 -0.0319  0.0675 -0.3124
   15DG      C6  460   4.233   3.719   6.793  0.1825 -0.0376 -0.4520
   15DG      O6  461   4.173   3.826   6.799 -0.2911 -0.3565  0.7006
   15DG      N1  462   4.368   3.727   6.762  0.3218 -0.1454  0.1076
   15DG      H1  463   4.418   3.812   6.741  0.8238  0.3992  3.1720
   15DG      C2  464   4.451   3.617   6.769  0.4435 -0.0423  0.2771
   15DG      N2  465   4.579   3.645   6.745  0.0744  0.7793 -0.7730
   15DG     H21  466   4.604   3.740   6.719 -2.5007  1.1743 -2.1237
   15DG     H22  467   4.631   3.563   6.719 -0.3613  0.5030 -0.7676
   15DG      N3  468   4.411   3.491   6.795  0.3787 -0.0348  0.2116
   15DG      C4  469   4.278   3.486   6.819  0.3502  0.3986  0.1648
   15DG     C3'  470   4.217   3.131   7.079 -0.5833  0.1072  0.2375
   15DG     H3'  471   4.141   3.199   7.118 -2.6165 -2.0687  0.3557
   15DG     C2'  472   4.318   3.191   6.982 -0.7232 -0.2464 -0.1301
   15DG    H2'1  473   4.374   3.277   7.019  0.0052 -0.4581 -0.7153
   15DG    H2'2  474   4.394   3.116   6.960  1.0845  1.6600 -0.7538
   15DG     O3'  475   4.279   3.043   7.170 -0.0140 -0.0767 -0.3217
   16DG       P  476   4.326   3.098   7.314  0.0370 -0.0215 -0.3592
   16DG     O1P  477   4.370   2.990   7.404 -0.2704 -0.0874 -0.2847
   16DG     O2P  478   4.216   3.187   7.359  0.0441 -0.3556  0.3207
   16DG     O5'  479   4.456   3.191   7.299  0.2436 -0.3310 -0.4956
   16DG     C5'  480   4.579   3.154   7.240  0.7016  0.3036  0.0442
   16DG    H5'1  481   4.564   3.099   7.147  1.2196  1.5915 -0.8348
   16DG    H5'2  482   4.627   3.088   7.312  1.2884  1.1797  0.4780
   16DG     C4'  483   4.664   3.278   7.216  0.4806  0.4347 -0.0686
   16DG     H4'  484   4.758   3.247   7.171 -0.2310  0.0608 -1.3390
   16DG     O4'  485   4.593   3.356   7.123 -0.0750 -0.0228 -0.0292
   16DG     C1'  486   4.631   3.491   7.123 -0.4340  0.0800  0.2362
   16DG     H1'  487   4.709   3.506   7.048 -1.1893 -0.8212 -0.7610
   16DG      N9  488   4.519   3.585   7.105 -0.1850  0.2350 -0.5414
   16DG      C8  489   4.384   3.561   7.120 -0.0782  0.0169  0.0779
   16DG      H8  490   4.350   3.462   7.145 -1.4206  0.3216 -0.4528
   16DG      N7  491   4.311   3.668   7.109 -0.2939 -0.1678 -0.2708
   16DG      C5  492   4.404   3.768   7.080  0.1898 -0.4008  0.4711
   16DG      C6  493   4.385   3.905   7.050  0.1511 -0.4980  0.0405
   16DG      O6  494   4.283   3.972   7.043  0.3283 -0.2027  0.2093
   16DG      N1  495   4.505   3.970   7.021  0.0584 -0.2263  0.2543
   16DG      H1  496   4.500   4.068   6.997  1.1590 -0.7078 -2.2500
   16DG      C2  497   4.630   3.913   7.033  0.1862 -0.2511 -1.0432
   16DG      N2  498   4.729   4.000   7.008  0.0829  0.3172  0.4454
   16DG     H21  499   4.710   4.095   6.982 -0.5804  0.3920  1.1693
   16DG     H22  500   4.825   3.979   7.035 -0.1002 -0.2413  0.6920
   16DG      N3  501   4.649   3.785   7.067  0.5554  0.1359  0.2597
   16DG      C4  502   4.532   3.719   7.081  0.4302  0.1904 -0.4686
   16DG     C3'  503   4.689   3.374   7.332 -0.1058  0.4411  0.0541
   16DG     H3'  504   4.608   3.370   7.405 -0.9136  1.2721 -0.7663
   16DG     C2'  505   4.695   3.509   7.261 -0.2016  0.4602  0.0813
   16DG    H2'1  506   4.646   3.581   7.326 -0.8432  0.0349  0.0736
   16DG    H2'2  507   4.797   3.544   7.248  0.3472 -0.2021  2.1980
   16DG     O3'  508   4.814   3.347   7.390 -0.0426 -0.0017 -0.2805
   17DC       P  509   4.868   3.408   7.529 -0.1768  0.0870 -0.2668
   17DC     O1P  510   5.001   3.352   7.564  0.0489  0.5922 -0.3049
   17DC     O2P  511   4.760   3.394   7.629 -0.1766 -0.0375 -0.2837
   17DC     O5'  512   4.888   3.566   7.506  0.3630  0.0632  0.0155
   17DC     C5'  513   5.007   3.611   7.443  0.2691 -0.1163 -0.2930
   17DC    H5'1  514   5.022   3.573   7.342  3.0791 -0.0814  0.0538
   17DC    H5'2  515   5.096   3.577   7.497  0.8645 -0.8995 -1.7187
   17DC     C4'  516   5.017   3.763   7.436 -0.1685 -0.0670  0.0493
   17DC     H4'  517   5.117   3.796   7.408 -0.3016  0.6577  0.4139
   17DC     O4'  518   4.923   3.810   7.342  0.4203  0.0621 -0.4870
   17DC     C1'  519   4.877   3.940   7.370 -0.3048 -0.3854  0.4598
   17DC     H1'  520   4.914   4.004   7.290  1.1645 -0.2041  1.2529
   17DC      N1  521   4.733   3.954   7.399 -0.3464  0.3817 -0.0999
   17DC      C6  522   4.656   3.845   7.426  0.0403  0.1872  0.2166
   17DC      H6  523   4.703   3.750   7.450 -0.8046 -0.3467 -0.1665
   17DC      C5  524   4.523   3.846   7.405  0.0290 -0.0090  0.2629
   17DC      H5  525   4.466   3.756   7.419  0.0953 -0.3301 -1.2820
   17DC      C4  526   4.470   3.974   7.368  0.0555 -0.1112 -0.1333
   17DC      N4  527   4.337   3.978   7.349  0.0547  0.2802 -0.0557
   17DC     H41  528   4.282   3.895   7.364  1.4261 -0.4760  1.0763
   17DC     H42  529   4.302   4.051   7.288  2.0710  0.5885 -0.9436
   17DC      N3  530   4.542   4.086   7.348 -0.4417  0.1255 -0.6351
   17DC      C2  531   4.677   4.073   7.355 -0.4497  0.3978  0.0755
   17DC      O2  532   4.747   4.169   7.323 -0.3082  0.1895 -0.2427
   17DC     C3'  533   4.996   3.835   7.568  0.3914 -0.0056  0.1052
   17DC     H3'  534   4.915   3.784   7.620  1.5657  0.0255  2.1132
   17DC     C2'  535   4.954   3.965   7.500  0.9314 -0.0531 -0.3232
   17DC    H2'1  536   4.887   4.009   7.573  0.6128 -1.5367  0.3311
   17DC    H2'2  537   5.042   4.023   7.470  2.6655 -1.8467  1.0246
   17DC     O3'  538   5.103   3.870   7.654  0.3311 -0.2336  0.2741
   18DA       P  539   5.079   3.923   7.804  0.0061 -0.1788  0.2036
   18DA     O1P  540   5.212   3.937   7.868  0.0336 -0.3064  0.1745
   18DA     O2P  541   4.991   3.825   7.870  0.0116 -0.3849 -0.0947
   18DA     O5'  542   5.004   4.066   7.803  0.1390 -0.1105 -0.0514
   18DA     C5'  543   5.083   4.181   7.782 -0.0685  0.1432  0.5454
   18DA    H5'1  544   5.151   4.165   7.698  0.5895  0.2214  1.0571
   18DA    H5'2  545   5.151   4.203   7.863 -1.2590 -0.4197  1.7384
   18DA     C4'  546   5.000   4.308   7.763 -0.0140  0.0867 -0.0946
   18DA     H4'  547   5.076   4.385   7.747 -0.2365  0.4143  0.3982
   18DA     O4'  548   4.917   4.306   7.649 -0.2878 -0.1455  0.1086
   18DA     C1'  549   4.804   4.387   7.673 -0.2389 -0.1438  0.3336
   18DA     H1'  550   4.794   4.462   7.595 -0.2811 -1.3377 -0.8434
   18DA      N9  551   4.682   4.304   7.663 -0.1846 -0.2098  0.2126
   18DA      C8  552   4.664   4.170   7.687 -0.1604 -0.1765  0.4244
   18DA      H8  553   4.748   4.112   7.721  0.7780 -0.6088 -2.3602
   18DA      N7  554   4.545   4.122   7.666 -0.1472 -0.0438  0.0209
   18DA      C5  555   4.476   4.236   7.627 -0.1778 -0.2375 -0.5030
   18DA      C6  556   4.342   4.258   7.593 -0.2121 -0.1784 -0.3301
   18DA      N6  557   4.245   4.166   7.585 -0.7195  0.2766  0.4040
   18DA     H61  558   4.268   4.068   7.592 -1.1037  0.1025 -0.5723
   18DA     H62  559   4.154   4.195   7.551 -2.3088 -1.9123  2.4129
   18DA      N1  560   4.302   4.383   7.566  0.1277 -0.1339 -0.6287
   18DA      C2  561   4.391   4.481   7.576 -0.3306  0.1797  0.6139
   18DA      H2  562   4.365   4.579   7.539  0.4569 -0.2115 -1.0844
   18DA      N3  563   4.522   4.474   7.598 -0.2252 -0.2950 -0.1243
   18DA      C4  564   4.556   4.347   7.630 -0.0691 -0.3191 -0.3802
   18DA     C3'  565   4.909   4.348   7.879 -0.1590 -0.0350 -0.1649
   18DA     H3'  566   4.847   4.268   7.918 -0.9756 -0.0995 -1.5488
   18DA     C2'  567   4.818   4.451   7.811 -0.4785 -0.0110  0.2981
   18DA    H2'1  568   4.726   4.479   7.862 -0.1519  0.1799  0.7875
   18DA    H2'2  569   4.876   4.543   7.806  1.7220 -1.2969  0.7398
   18DA     O3'  570   4.980   4.424   7.975 -0.5994 -0.0669  0.1896
   19DT       P  571   4.926   4.457   8.123 -0.0153 -0.1486  0.4240
   19DT     O1P  572   5.030   4.530   8.198  0.2637 -0.0221 -0.0820
   19DT     O2P  573   4.876   4.327   8.174  0.4266 -0.3224  0.4227
   19DT     O5'  574   4.806   4.558   8.086  0.2540  0.0733  0.1444
   19DT     C5'  575   4.830   4.695   8.062 -0.1359  0.0960 -0.1250
   19DT    H5'1  576   4.895   4.720   7.978  1.0264  1.5722  1.1611
   19DT    H5'2  577   4.874   4.742   8.150  0.9509  2.0153 -1.6314
   19DT     C4'  578   4.700   4.771   8.036 -0.1878 -0.0396 -0.2627
   19DT     H4'  579   4.740   4.871   8.023  0.8612 -0.4027  0.0287
   19DT     O4'  580   4.635   4.732   7.917 -0.1144 -0.5780 -0.1302
   19DT     C1'  581   4.496   4.741   7.937 -0.0827 -0.2647 -0.0384
   19DT     H1'  582   4.448   4.805   7.863 -3.0296 -0.0704  1.9032
   19DT      N1  583   4.429   4.610   7.923 -0.1511 -0.2649  0.2898
   19DT      C6  584   4.487   4.500   7.979 -0.2784 -0.3733  0.2116
   19DT      H6  585   4.582   4.511   8.031  1.3668 -2.7023 -2.0487
   19DT      C5  586   4.431   4.377   7.976 -0.1082 -0.4415 -0.2952
   19DT      C7  587   4.497   4.259   8.043  0.2388 -0.3055 -0.3921
   19DT     H71  588   4.540   4.197   7.964  0.7320  0.8290 -1.0315
   19DT     H72  589   4.574   4.289   8.113  0.3822 -2.7937  0.6231
   19DT     H73  590   4.422   4.218   8.111  1.5422  1.0295  1.9456
   19DT      C4  591   4.301   4.364   7.915 -0.1822  0.0609 -0.2463
   19DT      O4  592   4.243   4.257   7.902 -0.0715 -0.1200  0.6585
   19DT      N3  593   4.237   4.483   7.882 -0.4628 -0.0130  0.0287
   19DT      H3  594   4.145   4.473   7.841  0.5439 -1.5088 -2.0503
   19DT      C2  595   4.295   4.609   7.890 -0.0089 -0.1988 -0.2980
   19DT      O2  596   4.230   4.713   7.874 -0.3373 -0.3689 -0.0943
   19DT     C3'  597   4.601   4.770   8.152 -0.0802 -0.2936 -0.1701
   19DT     H3'  598   4.589   4.678   8.209 -0.2362 -0.2178 -0.0811
   19DT     C2'  599   4.473   4.801   8.075 -0.2219 -0.4294  0.0094
   19DT    H2'1  600   4.385   4.757   8.123 -3.2272  3.4630 -1.3972
   19DT    H2'2  601   4.457   4.908   8.074  1.0934 -0.2103  0.2570
   19DT     O3'  602   4.626   4.877   8.241  0.1556 -0.5356  0.0543
   20DC       P  603   4.554   4.886   8.385  0.0028 -0.1015 -0.0490
   20DC     O1P  604   4.600   5.011   8.450 -0.1893  0.1938 -0.4694
   20DC     O2P  605   4.569   4.753   8.448  0.3686 -0.0064  0.0685
   20DC     O5'  606   4.396   4.905   8.359 -0.0405 -0.2365  0.1123
   20DC     C5'  607   4.341   5.031   8.327 -0.7333 -0.2709  1.1547
   20DC    H5'1  608   4.384   5.073   8.237  0.5691 -0.7750  1.5111
   20DC    H5'2  609   4.372   5.101   8.405  2.0615 -2.0407  1.7603
   20DC     C4'  610   4.191   5.013   8.304 -0.5436 -0.4954  0.0708
   20DC     H4'  611   4.156   5.114   8.284 -1.2770 -0.2122  2.4675
   20DC     O4'  612   4.166   4.921   8.200  0.3371 -0.5651 -0.0878
   20DC     C1'  613   4.042   4.861   8.232  0.1812  0.0138  0.4163
   20DC     H1'  614   3.969   4.891   8.157  0.1764  0.4124  0.5778
   20DC      N1  615   4.053   4.714   8.228  0.1428  0.0208 -0.0397
   20DC      C6  616   4.175   4.654   8.251  0.3130  0.3880  0.0135
   20DC      H6  617   4.261   4.710   8.284  0.7555 -0.3336  0.0936
   20DC      C5  618   4.183   4.520   8.240 -0.3131  0.3665 -0.2172
   20DC      H5  619   4.281   4.477   8.251 -0.4714  0.1475  0.3764
   20DC      C4  620   4.068   4.441   8.208 -0.4437  0.1636  0.7280
   20DC      N4  621   4.068   4.307   8.221  0.2563  0.1006  0.1405
   20DC     H41  622   4.134   4.263   8.283  0.6087  1.2616  0.6268
   20DC     H42  623   3.982   4.267   8.188  0.1036  1.2053 -0.8714
   20DC      N3  624   3.951   4.503   8.186 -0.2949  0.1395 -0.2018
   20DC      C2  625   3.945   4.638   8.186  0.0570  0.1548 -0.0593
   20DC      O2  626   3.838   4.690   8.157 -0.3589 -0.6337  0.0454
   20DC     C3'  627   4.124   4.961   8.431 -0.1340 -0.2547  0.3869
   20DC     H3'  628   4.186   4.879   8.466  2.1277  0.9904 -0.4867
   20DC     C2'  629   3.994   4.913   8.367 -0.1741 -0.0514  0.3139
   20DC    H2'1  630   3.961   4.837   8.439  3.0319  0.8573  3.0184
   20DC    H2'2  631   3.922   4.995   8.361 -0.4835 -0.1869  1.7204
   20DC     O3'  632   4.096   5.058   8.530 -0.1121  0.1001  0.0509
   21DT       P  633   4.032   5.023   8.674  0.1755  0.2005  0.2022
   21DT     O1P  634   4.026   5.151   8.748  0.1692  0.4244 -0.1822
   21DT     O2P  635   4.122   4.920   8.731 -0.2696 -0.0501  0.4492
   21DT     O5'  636   3.891   4.948   8.656  0.0774  0.4018  0.1292
   21DT     C5'  637   3.773   5.012   8.612  0.0460  0.1951 -0.0877
   21DT    H5'1  638   3.776   5.048   8.510  0.2557 -0.4750 -0.3273
   21DT    H5'2  639   3.745   5.092   8.681  1.5776  0.0703  0.7357
   21DT     C4'  640   3.661   4.909   8.609  0.2407 -0.0177 -0.0998
   21DT     H4'  641   3.567   4.961   8.589 -0.6248 -1.7022 -0.7000
   21DT     O4'  642   3.698   4.816   8.510  0.1092  0.0820 -0.2421
   21DT     C1'  643   3.630   4.694   8.527 -0.1673  0.3055  0.2508
   21DT     H1'  644   3.554   4.673   8.452 -1.7671 -1.6504  2.2524
   21DT      N1  645   3.724   4.581   8.521 -0.2195  0.2736  0.0307
   21DT      C6  646   3.857   4.587   8.552 -0.2250 -0.5827  0.2725
   21DT      H6  647   3.902   4.682   8.579  1.3203 -1.4484  0.8342
   21DT      C5  648   3.946   4.488   8.534  0.4390  0.1405 -0.4998
   21DT      C7  649   4.092   4.513   8.563  0.3126  0.3973 -0.0695
   21DT     H71  650   4.125   4.614   8.539  0.0204  0.4453 -0.2669
   21DT     H72  651   4.118   4.501   8.668 -0.6013 -1.8893 -0.0567
   21DT     H73  652   4.156   4.443   8.509  1.6529  0.8646  0.8606
   21DT      C4  653   3.898   4.359   8.491 -0.1776  0.1783  0.0694
   21DT      O4  654   3.959   4.253   8.495 -0.2303  0.1533  0.2302
   21DT      N3  655   3.763   4.356   8.459 -0.2741  0.0984  0.4726
   21DT      H3  656   3.726   4.274   8.414  3.0721 -1.1512 -0.2788
   21DT      C2  657   3.672   4.457   8.487 -0.2197  0.2788  0.0114
   21DT      O2  658   3.551   4.437   8.479  0.0118 -0.9035 -0.7704
   21DT     C3'  659   3.632   4.819   8.730 -0.2195  0.0532 -0.1539
   21DT     H3'  660   3.724   4.778   8.772 -0.7172  0.1868  1.1004
   21DT     C2'  661   3.555   4.708   8.660 -0.3061 -0.1228  0.2186
   21DT    H2'1  662   3.568   4.616   8.717  0.7564  0.7417  1.4222
   21DT    H2'2  663   3.451   4.738   8.648 -0.2982 -0.3616 -0.4821
   21DT     O3'  664   3.555   4.881   8.830 -0.4294 -0.0874 -0.2294
   22DG       P  665   3.560   4.821   8.979 -0.3499  0.3361 -0.0625
   22DG     O1P  666   3.497   4.921   9.069 -0.1682  0.1240  0.3029
   22DG     O2P  667   3.697   4.774   9.010 -0.4302 -0.1424 -0.4317
   22DG     O5'  668   3.475   4.685   8.982 -0.0316  0.1493  0.7152
   22DG     C5'  669   3.337   4.685   8.954  0.0145 -0.1533  0.4862
   22DG    H5'1  670   3.307   4.756   8.877  0.4518  0.8446  1.2233
   22DG    H5'2  671   3.286   4.727   9.040 -0.0287 -1.0566  0.9149
   22DG     C4'  672   3.272   4.550   8.923 -0.0410  0.0849 -0.4825
   22DG     H4'  673   3.165   4.570   8.911 -0.2025  0.9373  1.8494
   22DG     O4'  674   3.330   4.494   8.808 -0.4638 -0.0397 -0.6370
   22DG     C1'  675   3.332   4.353   8.811 -0.0515 -0.0227  0.4037
   22DG     H1'  676   3.283   4.312   8.722  1.3635  1.2939 -1.0590
   22DG      N9  677   3.472   4.307   8.807 -0.1148 -0.2186  0.4375
   22DG      C8  678   3.588   4.375   8.832 -0.1368  0.1039 -0.3068
   22DG      H8  679   3.587   4.476   8.871  0.9003  0.6336 -1.5935
   22DG      N7  680   3.698   4.306   8.818 -0.2008 -0.1408  0.3698
   22DG      C5  681   3.651   4.182   8.776  0.2396 -0.2530  0.2040
   22DG      C6  682   3.722   4.066   8.736 -0.0206 -0.1919 -0.4533
   22DG      O6  683   3.844   4.050   8.735  0.1913  1.1187  0.8652
   22DG      N1  684   3.637   3.960   8.707  0.3256 -0.6635  0.2282
   22DG      H1  685   3.675   3.868   8.686  0.5965 -1.1762  2.5867
   22DG      C2  686   3.500   3.971   8.693  0.4444  0.0463 -0.4285
   22DG      N2  687   3.435   3.858   8.662 -0.0791  0.3315 -0.3663
   22DG     H21  688   3.480   3.771   8.642 -0.0205  0.5486 -1.2349
   22DG     H22  689   3.334   3.863   8.670  0.0758  1.3078  1.4748
   22DG      N3  690   3.433   4.080   8.733  0.4485 -0.1971  0.2592
   22DG      C4  691   3.514   4.180   8.775  0.2365 -0.1098  0.4585
   22DG     C3'  692   3.283   4.438   9.026  0.3136  0.3076 -0.2760
   22DG     H3'  693   3.380   4.456   9.072  0.0143 -0.7005  0.8081
   22DG     C2'  694   3.273   4.310   8.945 -0.0207 -0.0986  0.3928
   22DG    H2'1  695   3.327   4.228   8.992 -0.3482 -0.5535 -0.0061
   22DG    H2'2  696   3.173   4.266   8.940 -0.1275  0.0464  1.2434
   22DG     O3'  697   3.175   4.437   9.118  0.4638 -0.0475 -0.1028
   23DC       P  698   3.197   4.377   9.266 -0.0068  0.1477  0.0472
   23DC     O1P  699   3.080   4.395   9.354 -0.3131  0.3203 -0.3952
   23DC     O2P  700   3.326   4.434   9.312  0.4312 -0.4191 -0.4674
   23DC     O5'  701   3.212   4.219   9.239 -0.2962  0.1219  0.0396
   23DC     C5'  702   3.102   4.132   9.223 -0.2234  0.1616 -0.6856
   23DC    H5'1  703   3.024   4.178   9.162 -0.7089  1.5009  0.8733
   23DC    H5'2  704   3.050   4.122   9.318  0.1803  1.8261 -0.2676
   23DC     C4'  705   3.130   3.989   9.176 -0.3009  0.0366 -0.3574
   23DC     H4'  706   3.031   3.947   9.157  0.3680 -2.0131  0.4476
   23DC     O4'  707   3.202   3.986   9.055 -0.0589 -0.2798 -0.2046
   23DC     C1'  708   3.280   3.869   9.053  0.2008 -0.1183  0.3046
   23DC     H1'  709   3.250   3.812   8.964 -0.1839  3.2874 -1.9277
   23DC      N1  710   3.426   3.890   9.063  0.2135 -0.4407  0.8274
   23DC      C6  711   3.477   4.002   9.122 -0.0784  0.1117  0.0468
   23DC      H6  712   3.408   4.079   9.154 -0.5539  0.0037 -0.7031
   23DC      C5  713   3.609   4.031   9.118 -0.0665  0.0961  0.2945
   23DC      H5  714   3.649   4.125   9.152 -0.1360 -0.0073  0.6702
   23DC      C4  715   3.698   3.935   9.061 -0.0098  0.3648 -0.0725
   23DC      N4  716   3.831   3.951   9.059  0.0694 -0.1901  0.3621
   23DC     H41  717   3.880   4.032   9.094  2.1430 -1.7130  1.1342
   23DC     H42  718   3.886   3.888   9.002  0.2289 -0.1344  0.4535
   23DC      N3  719   3.653   3.826   8.997  0.2274  0.0844  0.2345
   23DC      C2  720   3.519   3.805   9.007  0.2788 -0.1381  0.4767
   23DC      O2  721   3.481   3.699   8.959  0.1743 -0.0947  0.4628
   23DC     C3'  722   3.205   3.899   9.273 -0.1225  0.5905  0.0241
   23DC     H3'  723   3.282   3.962   9.317  0.6459  1.5242 -2.4916
   23DC     C2'  724   3.250   3.788   9.179  0.4401  0.2975  0.6307
   23DC    H2'1  725   3.333   3.730   9.220 -1.0330 -3.1765 -0.9128
   23DC    H2'2  726   3.171   3.716   9.159  0.5709  0.3503 -0.1444
   23DC     O3'  727   3.117   3.856   9.374 -0.0293  0.0636 -0.1163
   24DG       P  728   3.176   3.813   9.517 -0.0465  0.0646 -0.1096
   24DG     O1P  729   3.059   3.785   9.604 -0.1366  0.0332 -0.2400
   24DG     O2P  730   3.270   3.918   9.560 -0.5128  0.5826 -0.3372
   24DG     O5'  731   3.254   3.672   9.511 -0.2128 -0.0277 -0.1294
   24DG     C5'  732   3.193   3.549   9.482  0.1043 -0.1345 -0.3477
   24DG    H5'1  733   3.132   3.570   9.394  2.3051  2.3589 -1.3799
   24DG    H5'2  734   3.132   3.510   9.564 -2.2745 -2.1237 -2.8615
   24DG     C4'  735   3.295   3.443   9.443 -0.0955 -0.3407 -0.3147
   24DG     H4'  736   3.235   3.355   9.420 -1.6335  0.2351  1.3467
   24DG     O4'  737   3.373   3.474   9.329 -0.0470  0.4212 -0.0739
   24DG     C1'  738   3.509   3.439   9.339 -0.2400 -0.3248  0.0233
   24DG     H1'  739   3.529   3.360   9.267  1.1914  0.9895 -1.0994
   24DG      N9  740   3.598   3.554   9.313 -0.3952 -0.3295 -0.5291
   24DG      C8  741   3.583   3.688   9.338  0.2354 -0.2367 -0.6347
   24DG      H8  742   3.495   3.722   9.390  0.0830 -1.4711 -0.0404
   24DG      N7  743   3.688   3.763   9.316  0.0600  0.3410  0.4302
   24DG      C5  744   3.783   3.669   9.279 -0.4556 -0.0160 -0.0013
   24DG      C6  745   3.920   3.685   9.245 -0.3943 -0.5219 -0.0039
   24DG      O6  746   3.979   3.793   9.234 -0.2929 -0.5334  0.4170
   24DG      N1  747   3.985   3.566   9.215 -0.0025 -0.2922 -0.0774
   24DG      H1  748   4.082   3.570   9.187 -0.3230 -1.5474 -1.5260
   24DG      C2  749   3.923   3.443   9.227 -0.4064 -0.0962 -0.1230
   24DG      N2  750   3.999   3.334   9.212  0.0725  0.0308  1.2053
   24DG     H21  751   4.099   3.347   9.202  0.0550 -0.4619  0.3449
   24DG     H22  752   3.964   3.239   9.210 -0.2258  0.1324  1.4547
   24DG      N3  753   3.793   3.425   9.253 -0.3556 -0.1665  0.0828
   24DG      C4  754   3.730   3.543   9.277 -0.3643 -0.0491 -0.5078
   24DG     C3'  755   3.400   3.431   9.553 -0.3320  0.2038 -0.0303
   24DG     H3'  756   3.423   3.531   9.591 -0.2898  0.3365 -0.4055
   24DG     C2'  757   3.526   3.385   9.481  0.1577  0.8084  0.4254
   24DG    H2'1  758   3.615   3.417   9.535  0.3206  0.9926  0.0483
   24DG    H2'2  759   3.522   3.276   9.479 -1.3683  0.8232  1.5068
   24DG     O3'  760   3.371   3.340   9.657  0.0717  0.2216  0.0996
   25DC       P  761   3.451   3.341   9.797  0.2209  0.2851  0.0142
   25DC     O1P  762   3.394   3.244   9.894  0.2484  0.2499 -0.0047
   25DC     O2P  763   3.455   3.483   9.836 -0.4057  0.2647  0.1545
   25DC     O5'  764   3.598   3.283   9.767 -0.0584 -0.5883  0.3012
   25DC     C5'  765   3.623   3.144   9.759  0.0941 -0.5595  0.2676
   25DC    H5'1  766   3.556   3.107   9.681 -0.3143  0.3409  0.1755
   25DC    H5'2  767   3.598   3.105   9.857  0.5069  2.9369  1.9399
   25DC     C4'  768   3.767   3.109   9.723  0.1859  0.0831 -0.0120
   25DC     H4'  769   3.766   3.001   9.704  2.5823 -0.2534  1.3879
   25DC     O4'  770   3.808   3.181   9.609 -0.0053  0.0226 -0.1197
   25DC     C1'  771   3.946   3.208   9.614 -0.0526  0.2844 -0.1908
   25DC     H1'  772   4.004   3.150   9.543 -1.2260 -0.9843 -0.1538
   25DC      N1  773   3.971   3.351   9.592 -0.1200  0.3180 -0.0561
   25DC      C6  774   3.880   3.443   9.635 -0.3942  0.1380 -0.2514
   25DC      H6  775   3.799   3.411   9.700  1.6732  1.3302  3.1863
   25DC      C5  776   3.893   3.575   9.614  0.4718  0.0754 -0.1335
   25DC      H5  777   3.822   3.646   9.655  0.3795  0.0774 -0.2960
   25DC      C4  778   4.017   3.614   9.553  0.5596  0.3489  0.2093
   25DC      N4  779   4.046   3.743   9.531  0.1927  0.4731  0.4473
   25DC     H41  780   3.978   3.812   9.560  0.7288  1.2986 -0.2257
   25DC     H42  781   4.128   3.771   9.479 -0.9908  4.0136  0.2167
   25DC      N3  782   4.108   3.526   9.508 -0.5126 -0.3457 -0.6717
   25DC      C2  783   4.091   3.395   9.539  0.1780 -0.2533  0.1354
   25DC      O2  784   4.180   3.319   9.501  0.2297 -0.0441 -0.1728
   25DC     C3'  785   3.860   3.145   9.837 -0.0329 -0.3875  0.3202
   25DC     H3'  786   3.828   3.240   9.881  2.3181 -0.4986  2.5578
   25DC     C2'  787   3.987   3.173   9.757 -0.3827 -0.5400 -0.2925
   25DC    H2'1  788   4.044   3.256   9.798 -0.7444 -0.1757 -0.5246
   25DC    H2'2  789   4.046   3.082   9.773 -2.0765 -1.4376  1.0903
   25DC     O3'  790   3.893   3.047   9.933  0.0090 -0.3390  0.3558
   25DC     H3T  791   3.956   3.094   9.989 -0.3191  1.4107 -0.6569
   26G      O5'  792   5.017   3.961   9.126 -0.1226 -0.0696 -0.4484
   26G      H5T  793   4.983   3.949   9.037 -0.0901  0.5902 -0.5548
   26G      C5'  794   5.108   3.856   9.150 -0.0258  0.2711  0.7712
   26G     H5'1  795   5.183   3.885   9.224  1.6852  0.0865 -0.7992
   26G     H5'2  796   5.167   3.844   9.058 -0.4383  1.2090  0.3774
   26G      C4'  797   5.056   3.714   9.173 -0.0955  0.1415 -0.1350
   26G      H4'  798   5.136   3.641   9.181  0.7580  1.0945  0.2272
   26G      O4'  799   4.983   3.713   9.294 -0.4117  0.6424 -0.3154
   26G      C1'  800   4.866   3.634   9.288  0.0989 -0.1830  0.3786
   26G      H1'  801   4.861   3.556   9.364 -1.9036 -0.4245  0.0398
   26G       N9  802   4.739   3.708   9.294 -0.0610 -0.3896 -0.3258
   26G       C8  803   4.710   3.837   9.260 -0.2426 -0.2367  0.3981
   26G       H8  804   4.771   3.905   9.203 -1.0638  0.9989  0.9253
   26G       N7  805   4.591   3.878   9.296 -0.2034  0.0734  0.1814
   26G       C5  806   4.532   3.764   9.350 -0.0827  0.1082  0.3875
   26G       C6  807   4.405   3.742   9.410  0.2493 -0.0304  1.0500
   26G       O6  808   4.323   3.826   9.447  0.2690  0.3328  0.2843
   26G       N1  809   4.380   3.606   9.422  0.0497 -0.0279  0.6779
   26G       H1  810   4.285   3.580   9.444 -0.8531  1.0541 -1.6274
   26G       C2  811   4.476   3.507   9.415 -0.0373 -0.0787  0.2087
   26G       N2  812   4.446   3.380   9.443  0.2391 -0.2052 -0.0636
   26G      H21  813   4.353   3.347   9.467  0.9626 -0.4914  2.7872
   26G      H22  814   4.517   3.310   9.426 -0.7092 -1.0724 -0.5150
   26G       N3  815   4.602   3.529   9.375 -0.2364  0.0225 -0.3826
   26G       C4  816   4.618   3.658   9.337 -0.2000  0.0806 -0.1727
   26G      C3'  817   4.959   3.659   9.069 -0.3949 -0.0117  0.2194
   26G      H3'  818   4.887   3.737   9.044  0.5744  0.6762 -0.4940
   26G      C2'  819   4.876   3.563   9.153 -0.0271 -0.1944  0.3761
   26G     H2'1  820   4.777   3.541   9.113 -0.2055  0.8217  0.2475
   26G      O2'  821   4.948   3.445   9.182 -0.2128 -0.2394  0.6518
   26G     HO'2  822   5.001   3.433   9.103  0.8579  1.0368  1.1450
   26G      O3'  823   5.024   3.604   8.957 -0.3422 -0.2602  0.3727
   27C        P  824   4.943   3.580   8.820 -0.3444  0.0004  0.3285
   27C      O1P  825   5.036   3.504   8.734 -0.0036  0.7529  0.0213
   27C      O2P  826   4.890   3.710   8.774 -0.0716 -0.2181 -0.6157
   27C      O5'  827   4.824   3.479   8.857 -0.6627  0.0401 -0.5547
   27C      C5'  828   4.855   3.344   8.885  0.0085  0.2156 -0.4410
   27C     H5'1  829   4.936   3.331   8.957  1.1025 -1.7853 -1.9299
   27C     H5'2  830   4.900   3.298   8.797  2.2446 -1.3348  1.3872
   27C      C4'  831   4.733   3.268   8.938  0.1613  0.1505 -0.1817
   27C      H4'  832   4.780   3.174   8.966  0.6856  0.5224  0.2204
   27C      O4'  833   4.678   3.317   9.058  0.1509  0.4531 -0.3075
   27C      C1'  834   4.540   3.291   9.062  0.2521 -0.1079 -0.2753
   27C      H1'  835   4.507   3.225   9.142 -0.0050 -1.5714 -1.5498
   27C       N1  836   4.463   3.417   9.070  0.1652 -0.1570 -0.3285
   27C       C6  837   4.515   3.535   9.025 -0.1016 -0.2182 -0.8027
   27C       H6  838   4.611   3.546   8.976  0.7461  1.5422  1.0801
   27C       C5  839   4.445   3.650   9.040  0.3649 -0.0927  0.5908
   27C       H5  840   4.500   3.741   9.023  1.4428 -0.8201  0.0362
   27C       C4  841   4.314   3.644   9.096  0.2476  0.1736  0.3499
   27C       N4  842   4.250   3.761   9.109  0.0653  0.0989  0.1226
   27C      H41  843   4.290   3.840   9.059 -2.1472  1.3102  0.1342
   27C      H42  844   4.153   3.772   9.134 -0.2538  0.8633 -1.3230
   27C       N3  845   4.256   3.528   9.130  0.1542 -0.0179 -0.4423
   27C       C2  846   4.334   3.417   9.119  0.4185  0.0787  0.3543
   27C       O2  847   4.283   3.307   9.141  0.3973  0.1283  0.5537
   27C      C3'  848   4.619   3.253   8.838 -0.0164  0.2879  0.0001
   27C      H3'  849   4.594   3.347   8.790  1.5543  0.7820  0.0955
   27C      C2'  850   4.506   3.216   8.934  0.0292 -0.2346 -0.1434
   27C     H2'1  851   4.411   3.252   8.894 -0.5853 -0.9725  0.6091
   27C      O2'  852   4.487   3.079   8.960 -0.5204 -0.2066 -0.3894
   27C     HO'2  853   4.523   3.034   8.883 -2.6178 -1.2649 -0.8256
   27C      O3'  854   4.641   3.149   8.745 -0.0135  0.0420  0.2735
   28G        P  855   4.585   3.140   8.594 -0.0831 -0.0968  0.3084
   28G      O1P  856   4.616   3.007   8.538 -0.0420  0.0190  0.0592
   28G      O2P  857   4.626   3.262   8.522 -0.4654 -0.1395  0.0155
   28G      O5'  858   4.424   3.140   8.595 -0.0880 -0.1611 -0.2248
   28G      C5'  859   4.354   3.020   8.620  0.0122 -0.3168 -0.6950
   28G     H5'1  860   4.416   2.956   8.682  0.1633  0.8408  0.3850
   28G     H5'2  861   4.348   2.959   8.529  2.2428  1.3076 -2.0444
   28G      C4'  862   4.214   3.041   8.678  0.1908 -0.2532 -0.2867
   28G      H4'  863   4.166   2.945   8.695 -0.5641 -1.1390 -5.5915
   28G      O4'  864   4.218   3.122   8.794  0.3015 -0.6456 -0.0154
   28G      C1'  865   4.091   3.182   8.807  0.7211  0.3029 -0.1910
   28G      H1'  866   4.041   3.131   8.890  3.0147 -0.4491  0.8305
   28G       N9  867   4.104   3.328   8.824  0.0311  0.3132  0.2863
   28G       C8  868   4.204   3.411   8.783 -0.1372  0.6160  0.4885
   28G       H8  869   4.298   3.374   8.744 -1.5067 -0.7640 -1.6636
   28G       N7  870   4.182   3.538   8.805 -0.3451  0.5978  0.3746
   28G       C5  871   4.052   3.536   8.854 -0.2321  0.0044  0.6555
   28G       C6  872   3.972   3.647   8.892 -0.2024  0.0842  0.4830
   28G       O6  873   4.002   3.766   8.901 -0.5292  0.1866  0.2486
   28G       N1  874   3.838   3.618   8.914 -0.3048  0.0857 -0.1403
   28G       H1  875   3.782   3.696   8.944  0.2041  0.3636  0.0850
   28G       C2  876   3.789   3.489   8.906 -0.0078 -0.0432  0.1406
   28G       N2  877   3.659   3.470   8.930 -0.1653  0.0201 -0.6310
   28G      H21  878   3.600   3.547   8.961  0.9892  1.3847 -1.6778
   28G      H22  879   3.639   3.372   8.938  0.3685 -0.0218  0.4223
   28G       N3  880   3.870   3.383   8.890 -0.3004 -0.2215 -0.1672
   28G       C4  881   3.999   3.409   8.861 -0.2814 -0.0046  0.1093
   28G      C3'  882   4.122   3.110   8.577 -0.2237  0.0463  0.2915
   28G      H3'  883   4.175   3.194   8.533 -0.5860 -1.0327 -2.4151
   28G      C2'  884   4.015   3.154   8.677 -0.0881  0.5190  0.2269
   28G     H2'1  885   3.961   3.243   8.645 -0.6393  0.3647  0.7159
   28G      O2'  886   3.922   3.052   8.704  0.3294 -0.0059 -0.2962
   28G     HO'2  887   3.842   3.098   8.729  0.8864 -0.5968  3.0478
   28G      O3'  888   4.076   3.018   8.480  0.0686 -0.0612  0.2544
   29C        P  889   4.017   3.076   8.342  0.2016  0.0562  0.2460
   29C      O1P  890   4.003   2.957   8.256 -0.2586  0.0133  0.3760
   29C      O2P  891   4.113   3.179   8.296 -0.2436  0.2919 -0.1683
   29C      O5'  892   3.869   3.138   8.359  0.1324 -0.2731  0.8474
   29C      C5'  893   3.757   3.062   8.400 -0.4461  0.0944 -0.0266
   29C     H5'1  894   3.776   2.985   8.475 -1.9855 -0.1293  0.1664
   29C     H5'2  895   3.738   3.012   8.305  2.6322 -0.1790 -0.6099
   29C      C4'  896   3.647   3.160   8.442 -0.4380  0.2038 -0.2585
   29C      H4'  897   3.555   3.107   8.467 -1.3699  1.4964 -0.8682
   29C      O4'  898   3.687   3.231   8.556  0.1559  0.4004 -0.5862
   29C      C1'  899   3.613   3.351   8.560 -0.2067  0.1654 -0.2367
   29C      H1'  900   3.559   3.359   8.655  1.7476 -0.7944  1.0256
   29C       N1  901   3.701   3.468   8.548 -0.0709  0.0300 -0.5504
   29C       C6  902   3.828   3.463   8.498  0.2769 -0.1441  0.3453
   29C       H6  903   3.869   3.365   8.476 -0.3806 -1.1696  3.2608
   29C       C5  904   3.906   3.573   8.505  0.1108 -0.0358  0.4921
   29C       H5  905   4.001   3.571   8.454 -1.2815 -1.2713 -2.2596
   29C       C4  906   3.846   3.692   8.557 -0.2116  0.2532 -0.5287
   29C       N4  907   3.914   3.808   8.555  0.1737  0.0278 -0.4846
   29C      H41  908   4.006   3.813   8.513  0.4521  0.9903  0.2083
   29C      H42  909   3.864   3.893   8.578 -0.6812 -0.8312  1.0635
   29C       N3  910   3.718   3.701   8.594 -0.0459 -0.3946  0.2126
   29C       C2  911   3.643   3.587   8.589 -0.5051 -0.0565 -0.9053
   29C       O2  912   3.528   3.603   8.629 -0.2768 -0.1879 -0.1802
   29C      C3'  913   3.585   3.255   8.340 -0.2459  0.3672 -0.2237
   29C      H3'  914   3.664   3.297   8.279 -1.2438 -1.8151 -3.2559
   29C      C2'  915   3.518   3.348   8.441 -0.3966  0.1060 -0.0826
   29C     H2'1  916   3.500   3.444   8.392 -2.0323 -0.7613 -1.2886
   29C      O2'  917   3.391   3.301   8.482 -0.1701 -0.1263  0.3561
   29C     HO'2  918   3.353   3.239   8.420  0.5230 -2.2724  1.9595
   29C      O3'  919   3.494   3.187   8.256 -0.0675 -0.1962  0.0331
   30A        P  920   3.479   3.242   8.106  0.0724 -0.1692  0.0301
   30A      O1P  921   3.393   3.143   8.038  0.0366  0.1019 -0.3249
   30A      O2P  922   3.619   3.256   8.058  0.1565 -0.1211  0.2896
   30A      O5'  923   3.401   3.383   8.116  0.2777 -0.0289 -0.3065
   30A      C5'  924   3.265   3.384   8.154  0.4798  0.1176  0.4152
   30A     H5'1  925   3.250   3.312   8.235  0.5610 -1.4854 -0.9504
   30A     H5'2  926   3.194   3.357   8.077  1.5694 -1.3182 -0.1412
   30A      C4'  927   3.231   3.528   8.190  0.1359  0.2250 -0.3384
   30A      H4'  928   3.132   3.531   8.236  1.1258  1.3977  1.8687
   30A      O4'  929   3.315   3.570   8.295 -0.1367  0.0925 -0.0659
   30A      C1'  930   3.327   3.710   8.290  0.3123  0.0712  0.3041
   30A      H1'  931   3.285   3.746   8.383 -1.5525 -3.2521  0.9028
   30A       N9  932   3.469   3.747   8.277  0.3104 -0.0887 -0.2220
   30A       C8  933   3.576   3.684   8.218  0.2541 -0.3352 -0.0644
   30A       H8  934   3.560   3.587   8.175 -0.6072 -0.6935  1.0285
   30A       N7  935   3.691   3.745   8.228  0.4382 -0.7520  0.4440
   30A       C5  936   3.654   3.865   8.289  0.3861 -0.1980 -0.6443
   30A       C6  937   3.718   3.980   8.339 -0.0729 -0.2284  0.0138
   30A       N6  938   3.849   4.005   8.342 -0.1274  0.1220 -0.3921
   30A      H61  939   3.913   3.956   8.280  1.4127  1.9507 -0.3206
   30A      H62  940   3.877   4.082   8.401  0.4792 -0.6551  0.3728
   30A       N1  941   3.653   4.082   8.396  0.1558  0.0580 -0.2404
   30A       C2  942   3.521   4.074   8.392  0.1646  0.1485 -0.7960
   30A       H2  943   3.475   4.167   8.421 -2.2030 -0.2353 -2.9501
   30A       N3  944   3.444   3.973   8.356  0.3992 -0.2964 -0.0757
   30A       C4  945   3.520   3.869   8.315  0.5189 -0.2602  0.0542
   30A      C3'  946   3.235   3.640   8.086 -0.2828  0.2835 -0.2947
   30A      H3'  947   3.326   3.625   8.027  1.9607 -2.5173  3.4397
   30A      C2'  948   3.241   3.763   8.175 -0.0487 -0.2446  0.4276
   30A     H2'1  949   3.296   3.846   8.130  0.3312  0.7526  2.5705
   30A      O2'  950   3.113   3.797   8.223  0.1155  0.3701  0.4449
   30A     HO'2  951   3.042   3.755   8.174  1.4412 -1.5185  0.0394
   30A      O3'  952   3.113   3.642   8.014 -0.2137 -0.9884 -0.4731
   31G        P  953   3.119   3.701   7.865 -0.2192  0.1319 -0.0359
   31G      O1P  954   2.986   3.675   7.806  0.0902 -0.1265 -0.6239
   31G      O2P  955   3.238   3.645   7.797 -0.7060  0.1863 -0.9518
   31G      O5'  956   3.145   3.858   7.893  0.1656  0.0413  0.1289
   31G      C5'  957   3.031   3.936   7.921  0.3342  0.4664 -0.3415
   31G     H5'1  958   2.970   3.886   7.996 -1.6903  0.6431 -1.7915
   31G     H5'2  959   2.961   3.933   7.838 -0.5310  1.1558  0.3414
   31G      C4'  960   3.063   4.079   7.962  0.2411  0.4619 -0.2502
   31G      H4'  961   2.969   4.128   7.989 -0.6322 -0.4276 -1.5667
   31G      O4'  962   3.149   4.102   8.071 -0.3042  0.2044  0.2372
   31G      C1'  963   3.240   4.207   8.046  0.2593 -0.3143  0.0680
   31G      H1'  964   3.241   4.288   8.120  1.6959  1.5138 -1.8421
   31G       N9  965   3.378   4.156   8.035  0.2107 -0.4659  0.1611
   31G       C8  966   3.424   4.033   7.996  0.4234 -0.4631  0.3994
   31G       H8  967   3.358   3.957   7.957  0.3801 -0.5023  0.5467
   31G       N7  968   3.553   4.018   7.994  0.4234 -0.5211  0.8108
   31G       C5  969   3.598   4.141   8.042 -0.0789  0.0528 -0.1710
   31G       C6  970   3.729   4.187   8.071  0.1616 -0.3296 -0.6407
   31G       O6  971   3.840   4.134   8.068  0.3563  0.0565 -0.2613
   31G       N1  972   3.731   4.322   8.100  0.0012 -0.5145  0.2452
   31G       H1  973   3.817   4.371   8.119 -1.4845  1.4295  2.7823
   31G       C2  974   3.620   4.404   8.110  0.2806 -0.0445 -0.4227
   31G       N2  975   3.629   4.529   8.156  0.5824 -0.2660  0.1309
   31G      H21  976   3.716   4.581   8.161  0.8824 -0.6003 -1.1829
   31G      H22  977   3.536   4.564   8.176  0.0347 -1.8005  0.3947
   31G       N3  978   3.495   4.357   8.096  0.2199  0.1290 -0.4583
   31G       C4  979   3.493   4.228   8.057 -0.0247  0.2470 -0.8435
   31G      C3'  980   3.125   4.152   7.843  0.3007  0.0607 -0.4675
   31G      H3'  981   3.199   4.094   7.789  0.0166 -0.2256 -0.5560
   31G      C2'  982   3.191   4.269   7.916  0.2918 -0.2710  0.0768
   31G     H2'1  983   3.279   4.304   7.861 -0.5141  1.0301 -0.4226
   31G      O2'  984   3.097   4.367   7.954 -0.0331 -0.5858  0.0915
   31G     HO'2  985   3.016   4.352   7.905 -0.6119  0.6168  0.6369
   31G      O3'  986   3.027   4.212   7.760 -0.3498 -0.4563 -0.0827
   32A        P  987   3.057   4.260   7.609  0.0061 -0.1742  0.0767
   32A      O1P  988   2.935   4.324   7.553 -0.0229  0.0069  0.3423
   32A      O2P  989   3.114   4.141   7.543 -0.1312 -0.0695 -0.2327
   32A      O5'  990   3.166   4.379   7.619 -0.1996  0.0355 -0.1430
   32A      C5'  991   3.127   4.508   7.661  0.1503  0.0300  0.2057
   32A     H5'1  992   3.058   4.509   7.745 -0.9917 -0.0636 -0.7116
   32A     H5'2  993   3.073   4.566   7.586 -2.0046 -1.9121  0.1582
   32A      C4'  994   3.248   4.598   7.685  0.1802  0.0294  0.0637
   32A      H4'  995   3.209   4.697   7.708  0.8756 -0.1093  2.0656
   32A      O4'  996   3.333   4.552   7.787  0.2141 -0.0581 -0.0049
   32A      C1'  997   3.462   4.602   7.760  0.0728  0.0584 -0.4673
   32A      H1'  998   3.491   4.666   7.844  0.0697 -0.2746 -0.2107
   32A       N9  999   3.564   4.497   7.743  0.2609  0.1503  0.0639
   32A       C8 1000   3.550   4.368   7.698  0.0723  0.1229  0.1965
   32A       H8 1001   3.458   4.328   7.658 -0.2475  0.5928  0.4564
   32A       N7 1002   3.652   4.288   7.718 -0.1251 -0.2314 -0.2115
   32A       C5 1003   3.744   4.372   7.779 -0.0377 -0.4273 -0.0740
   32A       C6 1004   3.880   4.362   7.812 -0.0116 -0.0981 -0.0813
   32A       N6 1005   3.955   4.256   7.784 -0.2629 -0.3254  0.0949
   32A      H61 1006   3.909   4.169   7.762  0.4109 -0.3667 -1.3298
   32A      H62 1007   4.056   4.254   7.794  0.0662 -0.3677 -2.4935
   32A       N1 1008   3.955   4.465   7.854 -0.1040 -0.0531 -0.0247
   32A       C2 1009   3.888   4.579   7.867 -0.0411 -0.0968  0.7518
   32A       H2 1010   3.949   4.666   7.885  1.1430 -0.5766 -0.7006
   32A       N3 1011   3.764   4.607   7.830  0.1968 -0.1652 -0.1407
   32A       C4 1012   3.694   4.500   7.786  0.1536 -0.3778  0.4347
   32A      C3' 1013   3.335   4.621   7.562  0.1894 -0.6515 -0.0619
   32A      H3' 1014   3.357   4.528   7.511  0.4878 -0.7606  0.2625
   32A      C2' 1015   3.457   4.682   7.630 -0.1675  0.3400 -0.2865
   32A     H2'1 1016   3.550   4.669   7.574 -0.0174 -0.8462  0.1997
   32A      O2' 1017   3.440   4.815   7.675 -0.4104  0.1061  0.3237
   32A     HO'2 1018   3.514   4.853   7.723 -1.5453  0.7084  1.6476
   32A      O3' 1019   3.288   4.717   7.469  0.7428 -0.3338 -0.0184
   33U        P 1020   3.350   4.735   7.322  0.1115  0.0832 -0.2382
   33U      O1P 1021   3.268   4.834   7.249  0.0231  0.2685  0.1107
   33U      O2P 1022   3.357   4.596   7.271 -0.0824  0.0285 -0.1145
   33U      O5' 1023   3.499   4.791   7.344  0.2018 -0.0651 -0.4637
   33U      C5' 1024   3.528   4.928   7.360  0.3888 -0.2178  0.6224
   33U     H5'1 1025   3.471   4.967   7.444 -1.1873 -1.1045  0.0115
   33U     H5'2 1026   3.484   4.989   7.280  0.5739 -0.8310  0.0460
   33U      C4' 1027   3.678   4.944   7.385  0.4684  0.3190 -0.1607
   33U      H4' 1028   3.696   5.049   7.406 -0.2874  0.1628  1.3701
   33U      O4' 1029   3.724   4.869   7.494 -0.0135 -0.2549 -0.3486
   33U      C1' 1030   3.850   4.815   7.462  0.0225 -0.2723 -0.1770
   33U      H1' 1031   3.922   4.858   7.532  1.7242 -0.0099 -1.9977
   33U       N1 1032   3.879   4.670   7.470  0.2915 -0.2255 -0.2850
   33U       C6 1033   3.781   4.587   7.427 -0.2666  0.0846  0.3625
   33U       H6 1034   3.690   4.629   7.384 -1.2222 -1.2634  0.9787
   33U       C5 1035   3.803   4.454   7.434  0.4708  0.1516 -0.4587
   33U       H5 1036   3.735   4.386   7.385 -0.9751  1.0190  0.2695
   33U       C4 1037   3.929   4.395   7.473  0.0755 -0.2735  0.2014
   33U       O4 1038   3.949   4.274   7.468 -0.0034 -0.2577 -0.6483
   33U       N3 1039   4.020   4.489   7.522 -0.5398  0.3688  0.1382
   33U       H3 1040   4.110   4.464   7.559 -0.6262  0.0562  0.1433
   33U       C2 1041   4.004   4.626   7.512  0.3727  0.4908  0.2620
   33U       O2 1042   4.096   4.695   7.554  0.5201  0.0538  0.6652
   33U      C3' 1043   3.754   4.905   7.259  0.0527 -0.0656 -0.2947
   33U      H3' 1044   3.718   4.811   7.217 -0.5980 -0.1679  0.4763
   33U      C2' 1045   3.887   4.873   7.326 -0.0373  0.1759 -0.0031
   33U     H2'1 1046   3.941   4.796   7.271 -0.0800  1.1908 -1.5281
   33U      O2' 1047   3.968   4.987   7.343  0.2101  0.0332 -0.2128
   33U     HO'2 1048   4.048   4.972   7.291 -0.1584 -1.0152 -0.4953
   33U      O3' 1049   3.757   5.010   7.165 -0.3299  0.4523  0.2646
   34G        P 1050   3.804   4.983   7.013 -0.2952  0.1472  0.3293
   34G      O1P 1051   3.781   5.105   6.932  0.3034  0.1317  0.1295
   34G      O2P 1052   3.748   4.858   6.958  0.1869  0.1345 -0.1371
   34G      O5' 1053   3.960   4.946   7.025 -0.2942 -0.0705 -0.3379
   34G      C5' 1054   4.058   5.046   7.043 -0.3180 -0.0624 -0.2523
   34G     H5'1 1055   4.031   5.113   7.125 -0.8369 -0.4647 -0.0859
   34G     H5'2 1056   4.061   5.115   6.959 -2.1901  2.3089  1.4861
   34G      C4' 1057   4.197   4.992   7.075 -0.3461 -0.0680 -0.1398
   34G      H4' 1058   4.269   5.073   7.089 -0.6136  0.3122 -0.9105
   34G      O4' 1059   4.197   4.908   7.188 -0.3353 -0.5411 -0.4918
   34G      C1' 1060   4.298   4.810   7.175 -0.2185 -0.4569 -0.2279
   34G      H1' 1061   4.371   4.822   7.255 -1.3050 -1.3948  0.9150
   34G       N9 1062   4.240   4.675   7.179 -0.4333 -0.3730 -0.4913
   34G       C8 1063   4.117   4.628   7.141 -0.6760 -0.3128  0.2155
   34G       H8 1064   4.045   4.687   7.085 -1.1975  1.0286  2.1930
   34G       N7 1065   4.094   4.503   7.170  0.2349 -0.5119  0.0974
   34G       C5 1066   4.216   4.464   7.224  0.4096  0.1327  0.1813
   34G       C6 1067   4.259   4.334   7.263  0.2069  0.1687  0.5222
   34G       O6 1068   4.188   4.233   7.263 -0.0684  0.3550 -0.0011
   34G       N1 1069   4.396   4.323   7.278  0.2546 -0.2614 -0.1578
   34G       H1 1070   4.437   4.231   7.287  0.7024 -0.0439  0.0695
   34G       C2 1071   4.484   4.430   7.274  0.1732 -0.1905 -0.0499
   34G       N2 1072   4.614   4.405   7.296  0.1671 -0.1511  0.0279
   34G      H21 1073   4.638   4.311   7.321 -2.0949 -0.8961 -0.3783
   34G      H22 1074   4.681   4.476   7.271 -0.6304  0.1596 -1.3720
   34G       N3 1075   4.443   4.552   7.239  0.2005  0.0326  0.6864
   34G       C4 1076   4.310   4.563   7.217  0.4209  0.0675 -0.7382
   34G      C3' 1077   4.261   4.911   6.963 -0.0930  0.0973 -0.1161
   34G      H3' 1078   4.192   4.838   6.922 -0.1900  0.2638 -0.2482
   34G      C2' 1079   4.369   4.838   7.042 -0.0396  0.3348  0.0289
   34G     H2'1 1080   4.395   4.749   6.986  2.4180  2.0339 -1.7597
   34G      O2' 1081   4.486   4.911   7.073 -0.1527  0.2413  0.7058
   34G     HO'2 1082   4.504   4.976   7.005  0.9670 -0.9261 -0.1868
   34G      O3' 1083   4.326   4.984   6.861 -0.1166 -0.2180 -0.3584
   35C        P 1084   4.346   4.923   6.713  0.3386 -0.2777 -0.2741
   35C      O1P 1085   4.407   5.035   6.638  0.7404 -0.0525  0.3801
   35C      O2P 1086   4.222   4.856   6.668  0.2652 -0.6324  0.4423
   35C      O5' 1087   4.463   4.817   6.744  0.3140 -0.3385 -0.3916
   35C      C5' 1088   4.598   4.855   6.748  0.3344 -0.4335 -0.0917
   35C     H5'1 1089   4.602   4.931   6.826 -0.6202 -0.5460  0.0675
   35C     H5'2 1090   4.635   4.892   6.652 -0.0145 -0.7319 -0.3431
   35C      C4' 1091   4.684   4.735   6.786  0.5861 -0.1775  0.1534
   35C      H4' 1092   4.783   4.774   6.809  0.8651 -0.2653 -0.8572
   35C      O4' 1093   4.637   4.662   6.898 -0.2760  0.1440  0.0108
   35C      C1' 1094   4.668   4.525   6.889  0.0352  0.2374 -0.3781
   35C      H1' 1095   4.731   4.502   6.975  2.4057  0.4191 -1.9496
   35C       N1 1096   4.545   4.444   6.879 -0.0231  0.2428  0.2958
   35C       C6 1097   4.427   4.498   6.837  0.1687  0.3101 -0.1616
   35C       H6 1098   4.442   4.600   6.805  1.9437  0.3201  0.6050
   35C       C5 1099   4.310   4.432   6.853  0.1572  0.3657 -0.0147
   35C       H5 1100   4.213   4.473   6.831  0.1292  0.4954  0.3467
   35C       C4 1101   4.324   4.303   6.914 -0.1635  0.4721  0.2853
   35C       N4 1102   4.211   4.232   6.925 -0.0623  0.2150 -0.3001
   35C      H41 1103   4.135   4.258   6.864 -0.2891 -0.2848 -0.2387
   35C      H42 1104   4.229   4.134   6.943  0.3977  0.6279  1.6821
   35C       N3 1105   4.439   4.242   6.946 -0.2327  0.3750  0.3476
   35C       C2 1106   4.552   4.314   6.924 -0.1519  0.1467  0.0321
   35C       O2 1107   4.660   4.262   6.951 -0.3438  0.1930  0.9007
   35C      C3' 1108   4.706   4.628   6.680 -0.5611  0.0396 -0.3165
   35C      H3' 1109   4.608   4.601   6.640 -1.2355 -1.0181  1.8612
   35C      C2' 1110   4.752   4.508   6.762 -0.2313  0.0212 -0.5260
   35C     H2'1 1111   4.725   4.415   6.712 -1.2190 -0.1312  0.2490
   35C      O2' 1112   4.887   4.521   6.801 -0.2627 -0.1022 -0.3728
   35C     HO'2 1113   4.910   4.435   6.837 -0.3032 -0.0895 -0.3165
   35C      O3' 1114   4.796   4.666   6.579  0.1395 -0.0218  0.2741
   36C        P 1115   4.767   4.608   6.431  0.1046  0.2115  0.1891
   36C      O1P 1116   4.858   4.681   6.339 -0.3138  0.0155 -0.3822
   36C      O2P 1117   4.622   4.607   6.402  0.1213  0.2746  0.1001
   36C      O5' 1118   4.812   4.454   6.438  0.2816  0.2404 -0.2999
   36C      C5' 1119   4.947   4.416   6.449  0.3315  0.5508  0.1559
   36C     H5'1 1120   4.995   4.463   6.536 -2.9010 -1.0715  3.0722
   36C     H5'2 1121   5.000   4.438   6.356 -1.2309  0.3223 -0.8148
   36C      C4' 1122   4.952   4.266   6.479 -0.3954  0.5325  0.1976
   36C      H4' 1123   5.055   4.242   6.507 -0.4475 -0.5221 -0.4719
   36C      O4' 1124   4.877   4.237   6.595 -0.2390  0.1608  0.2059
   36C      C1' 1125   4.828   4.105   6.587  0.1418  0.0362 -0.0953
   36C      H1' 1126   4.859   4.057   6.680 -3.0217  0.2896  1.2329
   36C       N1 1127   4.681   4.093   6.585  0.0858  0.4645  0.8892
   36C       C6 1128   4.604   4.198   6.541 -0.0296  0.2156  0.4828
   36C       H6 1129   4.652   4.267   6.473 -1.1630 -1.8336 -2.6022
   36C       C5 1130   4.471   4.207   6.562  0.0835  0.3035  1.1864
   36C       H5 1131   4.419   4.293   6.525  3.6593  1.7553 -1.0125
   36C       C4 1132   4.418   4.092   6.630 -0.1912  0.1266  0.6736
   36C       N4 1133   4.290   4.080   6.667 -0.2359 -0.7570  0.2535
   36C      H41 1134   4.225   4.157   6.661  0.3235 -0.0784  2.1441
   36C      H42 1135   4.248   3.992   6.696 -0.8916  0.1866  2.3445
   36C       N3 1136   4.490   3.985   6.666  0.1258  0.0495 -0.1440
   36C       C2 1137   4.625   3.984   6.649  0.0777 -0.3840 -0.5098
   36C       O2 1138   4.690   3.890   6.693 -0.3321 -0.3927  0.0978
   36C      C3' 1139   4.907   4.166   6.374 -0.0645  0.4694  0.1172
   36C      H3' 1140   4.816   4.205   6.331  0.9810  1.3284 -1.4177
   36C      C2' 1141   4.877   4.041   6.457  0.5676  0.2183 -0.0222
   36C     H2'1 1142   4.805   3.975   6.410  2.3503 -1.1683 -0.9449
   36C      O2' 1143   4.996   3.972   6.489  0.2113 -0.6421 -0.5386
   36C     HO'2 1144   5.065   3.988   6.425  0.5404  4.6023  0.6406
   36C      O3' 1145   5.000   4.140   6.270  0.0340 -0.3005  0.3868
   37C        P 1146   4.956   4.064   6.135 -0.1600  0.1658  0.1841
   37C      O1P 1147   5.074   4.058   6.046 -0.3621 -0.2249 -0.0581
   37C      O2P 1148   4.832   4.124   6.082 -0.1429 -0.0599 -0.1091
   37C      O5' 1149   4.912   3.917   6.183 -0.3602  0.0390 -0.3870
   37C      C5' 1150   4.998   3.811   6.217 -0.5629 -0.3332 -1.0126
   37C     H5'1 1151   5.056   3.837   6.306 -1.3269  1.7828 -1.0767
   37C     H5'2 1152   5.065   3.788   6.134 -0.3672  1.7739 -1.4824
   37C      C4' 1153   4.920   3.684   6.250  0.0420 -0.4609 -0.0183
   37C      H4' 1154   4.999   3.612   6.273  0.6769  0.2155 -0.0596
   37C      O4' 1155   4.832   3.714   6.355 -0.0843  0.5802 -0.4122
   37C      C1' 1156   4.727   3.620   6.352  0.0699  0.3984 -0.2041
   37C      H1' 1157   4.747   3.554   6.436  1.4753  1.5485  0.4129
   37C       N1 1158   4.603   3.696   6.374 -0.0936  0.1932 -0.3976
   37C       C6 1159   4.590   3.824   6.328 -0.1682  0.6552  0.8543
   37C       H6 1160   4.672   3.881   6.287 -1.3923  1.8058 -0.1046
   37C       C5 1161   4.476   3.894   6.347 -0.3085  0.6467  0.0705
   37C       H5 1162   4.471   3.999   6.321 -0.0315  0.8283  0.7278
   37C       C4 1163   4.367   3.826   6.410  0.3256 -0.4425  0.0154
   37C       N4 1164   4.248   3.885   6.428  0.2375 -0.6204  0.0180
   37C      H41 1165   4.235   3.980   6.398 -1.4445 -0.8838 -0.2177
   37C      H42 1166   4.169   3.831   6.460 -0.1418 -1.0616 -1.5473
   37C       N3 1167   4.375   3.695   6.434 -0.4113 -0.4888  0.0425
   37C       C2 1168   4.491   3.626   6.415  0.0457  0.2549  0.0993
   37C       O2 1169   4.489   3.503   6.418 -0.5255  0.2570 -0.0865
   37C      C3' 1170   4.827   3.633   6.140 -0.0196 -0.4642  0.0355
   37C      H3' 1171   4.773   3.717   6.097  0.7131 -0.2855 -0.5555
   37C      C2' 1172   4.741   3.539   6.223 -0.2459 -0.1787  0.1236
   37C     H2'1 1173   4.646   3.535   6.169  1.2339  2.6969 -3.0004
   37C      O2' 1174   4.794   3.411   6.252  0.6544  0.1410 -0.0890
   37C     HO'2 1175   4.844   3.374   6.180 -1.3918 -0.4533 -1.2985
   37C      O3' 1176   4.894   3.570   6.033  0.1287  0.3742 -0.3652
   38U        P 1177   4.817   3.542   5.894  0.0741 -0.3709 -0.1856
   38U      O1P 1178   4.919   3.460   5.824  0.4157 -0.4044  0.3410
   38U      O2P 1179   4.786   3.674   5.835 -0.7293 -0.3200  0.3360
   38U      O5' 1180   4.688   3.449   5.922 -0.0069 -0.2701 -0.2251
   38U      C5' 1181   4.699   3.310   5.937 -0.0951 -0.2226  0.2813
   38U     H5'1 1182   4.781   3.277   6.001  1.8051  2.8175 -0.4221
   38U     H5'2 1183   4.705   3.268   5.837 -0.8552 -0.8613  0.4899
   38U      C4' 1184   4.572   3.253   6.001 -0.1947 -0.3264 -0.0050
   38U      H4' 1185   4.569   3.149   6.031  0.1444  0.7304  4.4510
   38U      O4' 1186   4.522   3.340   6.100 -0.2701 -0.1277 -0.2159
   38U      C1' 1187   4.381   3.338   6.113 -0.2099 -0.3256  0.4820
   38U      H1' 1188   4.354   3.276   6.198 -0.3321  0.1839  0.8194
   38U       N1 1189   4.319   3.472   6.111  0.4507 -0.0196 -0.0857
   38U       C6 1190   4.390   3.584   6.079  0.1050  0.2749  0.1707
   38U       H6 1191   4.496   3.578   6.060  0.0905 -0.8907  0.3853
   38U       C5 1192   4.328   3.704   6.085 -0.1380  0.1437  0.2915
   38U       H5 1193   4.381   3.791   6.048 -1.4529  0.5984 -0.5978
   38U       C4 1194   4.193   3.721   6.133 -0.2866  0.0266 -0.0868
   38U       O4 1195   4.124   3.823   6.134 -0.0209  0.2018  0.5190
   38U       N3 1196   4.127   3.601   6.155  0.2155 -0.2598 -0.1402
   38U       H3 1197   4.027   3.611   6.162 -0.0422 -1.1425 -1.9713
   38U       C2 1198   4.186   3.476   6.149  0.2258 -0.2230 -0.8573
   38U       O2 1199   4.122   3.376   6.181 -0.5762  0.6445  0.2956
   38U      C3' 1200   4.462   3.257   5.896 -0.0157  0.4828 -0.1682
   38U      H3' 1201   4.463   3.350   5.838 -1.3214  0.1783 -0.7215
   38U      C2' 1202   4.340   3.262   5.987  0.1315  0.2068  0.0451
   38U     H2'1 1203   4.256   3.306   5.933 -0.2207  1.4192  1.5188
   38U      O2' 1204   4.306   3.132   6.028  0.0499  0.1150 -0.3112
   38U     HO'2 1205   4.320   3.076   5.951  0.1131 -0.0236 -0.1991
   38U      O3' 1206   4.451   3.145   5.812 -0.4877  0.4725 -0.0923
   39U        P 1207   4.412   3.158   5.656  0.0008  0.1065 -0.2466
   39U      O1P 1208   4.442   3.028   5.591  0.0971 -0.1537  0.3097
   39U      O2P 1209   4.452   3.293   5.609  0.1102  0.2851  0.3494
   39U      O5' 1210   4.254   3.172   5.684  0.0297  0.2605 -0.1610
   39U      C5' 1211   4.176   3.056   5.704  0.1548  0.3355  0.8120
   39U     H5'1 1212   4.234   3.004   5.780  1.0117  1.1689  0.7427
   39U     H5'2 1213   4.176   2.995   5.614 -1.6446  0.9461  0.3536
   39U      C4' 1214   4.029   3.072   5.743 -0.1559  0.5303 -0.3987
   39U      H4' 1215   3.985   2.974   5.757 -0.5956  0.4970 -1.8761
   39U      O4' 1216   4.021   3.158   5.855  0.1774 -0.2723  0.2486
   39U      C1' 1217   3.903   3.234   5.839  0.3047 -0.0464  0.3940
   39U      H1' 1218   3.833   3.210   5.919  0.9919  0.6082  1.2180
   39U       N1 1219   3.922   3.381   5.842  0.1577 -0.0140 -0.1627
   39U       C6 1220   4.039   3.432   5.793  0.1222 -0.2531 -0.5000
   39U       H6 1221   4.122   3.371   5.762  1.8406  1.5576  0.3368
   39U       C5 1222   4.067   3.564   5.794 -0.5690 -0.1062  0.0146
   39U       H5 1223   4.166   3.595   5.768  0.9228 -3.7270  0.7186
   39U       C4 1224   3.974   3.659   5.851 -0.3388  0.3455 -0.3579
   39U       O4 1225   3.982   3.781   5.863  0.2486  0.2398  0.3973
   39U       N3 1226   3.853   3.603   5.888 -0.0721 -0.2291 -0.3438
   39U       H3 1227   3.787   3.666   5.931  0.4642 -1.0487  1.8255
   39U       C2 1228   3.827   3.466   5.895  0.2507 -0.2565  0.4027
   39U       O2 1229   3.718   3.428   5.934 -0.0400  0.1877  0.0386
   39U      C3' 1230   3.950   3.144   5.634 -0.8978  0.0336 -0.1955
   39U      H3' 1231   4.010   3.228   5.599 -0.1524 -0.2205  0.4232
   39U      C2' 1232   3.833   3.209   5.706 -0.2372  0.3550  0.6016
   39U     H2'1 1233   3.810   3.300   5.650  1.0325  0.1629 -0.2700
   39U      O2' 1234   3.722   3.125   5.730  0.1345 -0.3842 -0.1974
   39U     HO'2 1235   3.658   3.151   5.664  1.6198 -0.5404 -1.7705
   39U      O3' 1236   3.919   3.057   5.527 -0.4598 -0.3530 -0.0180
   40C        P 1237   3.877   3.110   5.381  0.0865  0.1717  0.0095
   40C      O1P 1238   3.873   2.992   5.291 -0.3370  0.3992 -0.2747
   40C      O2P 1239   3.971   3.218   5.346  0.1218  0.1284 -0.0298
   40C      O5' 1240   3.728   3.168   5.404  0.1138  0.2725 -0.0716
   40C      C5' 1241   3.614   3.087   5.413  0.5946 -0.3410  0.5676
   40C     H5'1 1242   3.631   3.014   5.493  0.2872 -0.5557  0.4392
   40C     H5'2 1243   3.591   3.029   5.324  0.3534  0.5804  0.0135
   40C      C4' 1244   3.493   3.164   5.465  0.5185  0.0500 -0.1764
   40C      H4' 1245   3.411   3.099   5.496 -0.4458  0.3910 -1.8988
   40C      O4' 1246   3.522   3.248   5.575 -0.0231  0.3823 -0.2829
   40C      C1' 1247   3.446   3.367   5.576 -0.0694  0.3458  0.3842
   40C      H1' 1248   3.378   3.370   5.661 -2.3157  0.7570 -1.3476
   40C       N1 1249   3.537   3.483   5.573  0.3073  0.0339 -0.2701
   40C       C6 1250   3.667   3.474   5.532  0.4084  0.0364  0.0509
   40C       H6 1251   3.695   3.388   5.473 -2.6565 -0.0017 -1.5094
   40C       C5 1252   3.759   3.568   5.564  0.3468  0.0502  0.1885
   40C       H5 1253   3.862   3.555   5.533 -0.5451  1.0427 -3.6649
   40C       C4 1254   3.698   3.691   5.605 -0.2417 -0.0296 -0.4400
   40C       N4 1255   3.778   3.798   5.617 -0.3000 -0.1028  0.6839
   40C      H41 1256   3.865   3.795   5.566 -1.0002  1.9095 -0.7441
   40C      H42 1257   3.728   3.885   5.620 -0.9261 -0.4411  0.1865
   40C       N3 1258   3.568   3.704   5.633 -0.1033 -0.3204  0.3684
   40C       C2 1259   3.482   3.599   5.622 -0.1015 -0.2888  0.0400
   40C       O2 1260   3.364   3.603   5.656 -0.2260 -0.4924 -0.3643
   40C      C3' 1261   3.440   3.265   5.364 -0.3159 -0.2654 -0.0653
   40C      H3' 1262   3.517   3.329   5.322 -0.8762  0.2215 -0.3779
   40C      C2' 1263   3.361   3.363   5.450 -0.0522 -0.4478  0.3888
   40C     H2'1 1264   3.348   3.463   5.407 -1.9090 -0.9649 -0.3571
   40C      O2' 1265   3.234   3.310   5.482 -0.1558 -0.2856  0.2525
   40C     HO'2 1266   3.187   3.362   5.548 -1.4555 -1.1879  0.0777
   40C      O3' 1267   3.364   3.221   5.254 -0.4064 -0.0823 -0.0762
   41C        P 1268   3.353   3.297   5.112  0.0389 -0.0468 -0.0926
   41C      O1P 1269   3.277   3.207   5.022 -0.2333  0.2288 -0.1381
   41C      O2P 1270   3.487   3.340   5.068 -0.2094  0.1704 -0.6448
   41C      O5' 1271   3.268   3.429   5.145  0.2329  0.0388  0.0695
   41C      C5' 1272   3.128   3.432   5.167  0.1491 -0.2240 -0.3937
   41C     H5'1 1273   3.101   3.357   5.242  0.4871 -1.2215 -1.2461
   41C     H5'2 1274   3.084   3.401   5.073 -0.7425 -0.3042  0.0448
   41C      C4' 1275   3.081   3.571   5.209  0.2286 -0.1578 -0.5206
   41C      H4' 1276   2.975   3.563   5.235  0.1314  0.1359 -0.8217
   41C      O4' 1277   3.150   3.615   5.324  0.2648 -0.1510 -0.5451
   41C      C1' 1278   3.158   3.756   5.328  0.2516 -0.1697  0.3293
   41C      H1' 1279   3.113   3.796   5.419 -1.3232 -0.4584 -0.2782
   41C       N1 1280   3.298   3.800   5.318  0.2440 -0.0743  0.6393
   41C       C6 1281   3.403   3.720   5.286 -0.0959 -0.2049 -0.1663
   41C       H6 1282   3.384   3.617   5.259 -0.2667 -1.0476  2.8742
   41C       C5 1283   3.529   3.769   5.296 -0.1268 -0.2357  0.3761
   41C       H5 1284   3.615   3.708   5.271  0.1191  0.7387 -1.3154
   41C       C4 1285   3.551   3.901   5.346 -0.3078 -0.0447 -0.0450
   41C       N4 1286   3.675   3.948   5.360 -0.2321 -0.1438 -0.3776
   41C      H41 1287   3.751   3.882   5.347 -1.5994 -1.7146 -0.7540
   41C      H42 1288   3.688   4.044   5.389 -1.9646 -0.5844  2.1722
   41C       N3 1289   3.448   3.980   5.380  0.1020  0.2813  0.4473
   41C       C2 1290   3.324   3.930   5.360  0.2405  0.2884 -0.4514
   41C       O2 1291   3.230   4.005   5.386  0.1881  0.2542 -0.5401
   41C      C3' 1292   3.099   3.686   5.111 -0.3610  0.0585 -0.3823
   41C      H3' 1293   3.196   3.683   5.061 -1.2130 -2.7848 -2.1022
   41C      C2' 1294   3.093   3.809   5.201  0.5644 -0.2594  0.1309
   41C     H2'1 1295   3.140   3.896   5.155 -1.0095  0.3669 -0.3868
   41C      O2' 1296   2.960   3.830   5.243  0.4767 -0.0080 -0.2623
   41C     HO'2 1297   2.913   3.766   5.189  2.1497 -0.2151 -1.5404
   41C      O3' 1298   2.987   3.698   5.026 -0.4752  0.1906 -0.2117
   42G        P 1299   3.004   3.768   4.883 -0.1483  0.4835 -0.0320
   42G      O1P 1300   2.876   3.758   4.808 -0.1873 -0.4306  0.1500
   42G      O2P 1301   3.127   3.717   4.819 -0.2061  0.3123 -0.0075
   42G      O5' 1302   3.035   3.924   4.909  0.4075  0.2881  0.4822
   42G      C5' 1303   2.923   4.005   4.937  0.1960  0.1747 -0.0389
   42G     H5'1 1304   2.865   3.960   5.018  1.4362 -1.4704 -0.0080
   42G     H5'2 1305   2.843   4.005   4.863 -1.3286  0.1773  1.5454
   42G      C4' 1306   2.957   4.151   4.962  0.1810  0.1008  0.4164
   42G      H4' 1307   2.868   4.213   4.976 -0.1150  0.1726 -1.4888
   42G      O4' 1308   3.040   4.168   5.074  0.6528 -0.3796  0.1443
   42G      C1' 1309   3.136   4.266   5.042 -0.1269  0.3920  0.1112
   42G      H1' 1310   3.140   4.350   5.112 -3.0956  0.5845  0.1627
   42G       N9 1311   3.270   4.204   5.053 -0.3461  0.0933  1.2229
   42G       C8 1312   3.311   4.076   5.027 -0.5224  0.2527  0.1059
   42G       H8 1313   3.244   3.997   4.995 -0.1588  0.1793 -0.4785
   42G       N7 1314   3.440   4.062   5.036 -0.5143  0.1346 -0.2176
   42G       C5 1315   3.488   4.188   5.069  0.2917 -0.2151 -0.0164
   42G       C6 1316   3.617   4.242   5.095  0.1857  0.0232  0.0309
   42G       O6 1317   3.725   4.186   5.079  0.5062  0.4515  0.6511
   42G       N1 1318   3.615   4.375   5.132 -0.5820  0.0770 -0.1767
   42G       H1 1319   3.703   4.419   5.155  2.1188 -3.8792 -1.9233
   42G       C2 1320   3.503   4.456   5.140 -0.1317  0.7848 -0.7897
   42G       N2 1321   3.522   4.586   5.166 -0.0922  0.6510 -0.1183
   42G      H21 1322   3.613   4.624   5.187  0.3489  0.3302 -1.3564
   42G      H22 1323   3.453   4.653   5.137  1.0866  1.6683 -0.6950
   42G       N3 1324   3.383   4.410   5.104  0.0710 -0.2979 -0.1388
   42G       C4 1325   3.384   4.277   5.076  0.1595 -0.3866  0.2806
   42G      C3' 1326   3.029   4.211   4.841 -0.0387 -0.0642  0.2028
   42G      H3' 1327   3.103   4.147   4.793 -0.4071 -0.8955  0.7028
   42G      C2' 1328   3.103   4.327   4.907 -0.1688  0.1317  0.0032
   42G     H2'1 1329   3.192   4.354   4.850 -0.6925  0.3106 -0.7611
   42G      O2' 1330   3.026   4.444   4.928 -0.0659  0.1688  0.1698
   42G     HO'2 1331   2.947   4.450   4.874 -0.5956  0.9249  1.0085
   42G      O3' 1332   2.937   4.264   4.748  0.2510  0.3118  0.1317
   43U        P 1333   2.975   4.313   4.600 -0.2786 -0.1689 -0.1666
   43U      O1P 1334   2.851   4.364   4.536  0.0787  0.2410 -0.5403
   43U      O2P 1335   3.047   4.200   4.538 -0.1011 -0.1706  0.0455
   43U      O5' 1336   3.079   4.436   4.601 -0.4729 -0.0080  0.3374
   43U      C5' 1337   3.039   4.569   4.628 -0.3675  0.1599 -0.3254
   43U     H5'1 1338   2.960   4.571   4.703 -1.7884 -0.6477 -1.7464
   43U     H5'2 1339   3.002   4.608   4.533  0.6427 -2.4394 -1.9080
   43U      C4' 1340   3.154   4.661   4.667 -0.0028 -0.3002 -0.3076
   43U      H4' 1341   3.110   4.756   4.697 -0.7364 -0.8015  0.2312
   43U      O4' 1342   3.228   4.597   4.769  0.4653 -0.2457 -0.6118
   43U      C1' 1343   3.362   4.638   4.752  0.3833  0.0511 -0.5587
   43U      H1' 1344   3.389   4.708   4.831 -0.7195 -0.3519  0.1949
   43U       N1 1345   3.449   4.518   4.759  0.1201 -0.1002  0.3224
   43U       C6 1346   3.415   4.396   4.707  0.7748  0.1532 -0.7323
   43U       H6 1347   3.316   4.384   4.666 -0.0626  0.9312  0.9789
   43U       C5 1348   3.493   4.286   4.715 -0.2298 -0.4676  1.0819
   43U       H5 1349   3.460   4.189   4.680  0.1088  0.1015 -0.9334
   43U       C4 1350   3.625   4.290   4.774  0.2948  0.1644 -0.0966
   43U       O4 1351   3.716   4.208   4.766 -0.2026 -0.4471  0.3677
   43U       N3 1352   3.651   4.417   4.823 -0.0662  0.1714  0.0859
   43U       H3 1353   3.740   4.418   4.872  0.5674 -1.9949 -0.9164
   43U       C2 1354   3.573   4.532   4.817 -0.1494  0.1642  0.8460
   43U       O2 1355   3.618   4.636   4.863  0.2660  0.3677 -0.0043
   43U      C3' 1356   3.247   4.683   4.548  0.2508  0.1147 -0.0360
   43U      H3' 1357   3.264   4.594   4.487 -1.6374 -1.1235  1.1196
   43U      C2' 1358   3.369   4.726   4.628  0.3144  0.4229 -0.2980
   43U     H2'1 1359   3.460   4.695   4.577 -0.5635 -1.2392 -0.8971
   43U      O2' 1360   3.362   4.860   4.672  0.7482  0.2955  0.1746
   43U     HO'2 1361   3.366   4.911   4.591  0.9348 -0.5574 -0.3573
   43U      O3' 1362   3.194   4.777   4.458 -0.0998  0.1965  0.2532
   44A        P 1363   3.251   4.775   4.307 -0.1646 -0.3657  0.2356
   44A      O1P 1364   3.186   4.882   4.230  0.2539 -0.4866 -0.2978
   44A      O2P 1365   3.239   4.636   4.256  0.4662 -0.3300 -0.0239
   44A      O5' 1366   3.408   4.800   4.334 -0.3075  0.1045  0.6380
   44A      C5' 1367   3.444   4.933   4.365 -0.0523 -0.0190  0.8763
   44A     H5'1 1368   3.389   4.957   4.456 -1.0817 -0.3663  0.3674
   44A     H5'2 1369   3.407   5.007   4.293  1.6255  1.0902  1.0976
   44A      C4' 1370   3.593   4.963   4.384  0.0778  0.1069 -0.2594
   44A      H4' 1371   3.617   5.065   4.410  3.1839 -1.0051  1.7680
   44A      O4' 1372   3.649   4.897   4.496  0.2891  0.8157  0.0573
   44A      C1' 1373   3.782   4.856   4.477  0.1355  0.2460  0.1922
   44A      H1' 1374   3.840   4.914   4.549  1.2338 -0.9421  0.3094
   44A       N9 1375   3.785   4.709   4.489 -0.0358  0.1536 -0.8167
   44A       C8 1376   3.690   4.612   4.464 -0.3149  0.3572 -0.5539
   44A       H8 1377   3.588   4.634   4.438 -0.1479  2.2967  0.2402
   44A       N7 1378   3.740   4.493   4.479 -0.0462  0.5383  0.0597
   44A       C5 1379   3.872   4.511   4.518 -0.2131  0.3574  0.7269
   44A       C6 1380   3.977   4.420   4.533 -0.2217  0.3369  0.6568
   44A       N6 1381   3.959   4.287   4.535  0.2733  0.2470 -0.1499
   44A      H61 1382   3.864   4.261   4.512 -0.1543  1.2231  0.4209
   44A      H62 1383   4.024   4.223   4.577 -0.1274  0.7996  1.3687
   44A       N1 1384   4.098   4.471   4.557 -0.0425  0.0925  0.2887
   44A       C2 1385   4.115   4.603   4.553 -0.0578  0.1031  0.5564
   44A       H2 1386   4.214   4.644   4.567  0.6171 -2.1863  3.6088
   44A       N3 1387   4.026   4.699   4.531  0.1037  0.0257 -0.4810
   44A       C4 1388   3.902   4.645   4.521 -0.0499  0.3537 -0.3511
   44A      C3' 1389   3.682   4.924   4.266  0.2426  0.0179 -0.1063
   44A      H3' 1390   3.653   4.821   4.247  0.1216 -0.1830  1.0616
   44A      C2' 1391   3.816   4.907   4.337  0.1469 -0.2494  0.0107
   44A     H2'1 1392   3.889   4.846   4.285  0.9653 -0.3715  1.2685
   44A      O2' 1393   3.887   5.029   4.351  0.2011 -0.2668 -0.1151
   44A     HO'2 1394   3.933   5.059   4.273 -1.1341  0.8436 -0.5066
   44A      O3' 1395   3.681   5.013   4.157  0.2327  0.1883  0.0323
   45G        P 1396   3.735   4.975   4.010  0.0628 -0.2748  0.0874
   45G      O1P 1397   3.704   5.092   3.925 -0.4941 -0.3245  0.2227
   45G      O2P 1398   3.682   4.842   3.973 -1.6164  0.3432  0.1838
   45G      O5' 1399   3.895   4.956   4.005  0.1424  0.2991  0.3154
   45G      C5' 1400   3.988   5.059   4.028 -0.2438  0.5855  0.5986
   45G     H5'1 1401   3.945   5.122   4.106  0.4794  0.4398  1.1292
   45G     H5'2 1402   4.001   5.123   3.941 -0.0191 -0.9683 -0.5390
   45G      C4' 1403   4.122   5.004   4.077 -0.0182  0.1797 -0.4444
   45G      H4' 1404   4.185   5.083   4.117 -0.9409  0.1789  1.1069
   45G      O4' 1405   4.104   4.914   4.184 -0.1849  0.0387 -0.5916
   45G      C1' 1406   4.210   4.820   4.187  0.0507  0.3163 -0.2078
   45G      H1' 1407   4.280   4.834   4.270 -0.4398 -0.2290  0.3130
   45G       N9 1408   4.163   4.681   4.195  0.3260  0.2165 -0.3324
   45G       C8 1409   4.034   4.634   4.187  0.4272 -0.0847 -0.2183
   45G       H8 1410   3.951   4.698   4.162  0.7798  0.9965  1.2562
   45G       N7 1411   4.015   4.506   4.197  0.1040  0.0184  0.5680
   45G       C5 1412   4.145   4.466   4.226  0.2888  0.2073  0.0291
   45G       C6 1413   4.193   4.336   4.256  0.3221  0.0506 -0.6959
   45G       O6 1414   4.126   4.233   4.266 -0.2050  0.4810  0.2884
   45G       N1 1415   4.331   4.330   4.272  0.1916 -0.2163  0.4010
   45G       H1 1416   4.370   4.245   4.309  3.0062  0.7533 -0.0483
   45G       C2 1417   4.411   4.443   4.274  0.2231 -0.2437  0.9144
   45G       N2 1418   4.543   4.421   4.269  0.2711  0.2569 -0.4820
   45G      H21 1419   4.572   4.325   4.258  1.1935  0.6979 -2.1654
   45G      H22 1420   4.606   4.499   4.271 -0.8898  1.2213  0.6671
   45G       N3 1421   4.369   4.567   4.245  0.1464 -0.3153  0.7139
   45G       C4 1422   4.235   4.569   4.228  0.2377  0.2534 -0.0016
   45G      C3' 1423   4.187   4.915   3.972 -0.4766 -0.5336 -0.1351
   45G      H3' 1424   4.119   4.840   3.930  0.3503 -1.3411 -0.0403
   45G      C2' 1425   4.291   4.850   4.061 -0.0395 -0.1895 -0.3864
   45G     H2'1 1426   4.312   4.755   4.012 -1.6564 -0.9828  0.3728
   45G      O2' 1427   4.404   4.920   4.107 -0.1607 -0.4116  0.2635
   45G     HO'2 1428   4.445   4.969   4.036 -0.5390 -0.3269  0.1058
   45G      O3' 1429   4.237   5.000   3.871  0.0498 -0.2956  0.3248
   46A        P 1430   4.281   4.929   3.734 -0.0871 -0.0900  0.1732
   46A      O1P 1431   4.335   5.036   3.647  0.3955 -0.0809  0.4790
   46A      O2P 1432   4.155   4.866   3.689 -0.0437  0.0978 -0.2212
   46A      O5' 1433   4.396   4.824   3.776  0.3220  0.1851 -0.2439
   46A      C5' 1434   4.532   4.859   3.778  0.2918  0.3028 -0.2379
   46A     H5'1 1435   4.544   4.933   3.857 -0.0689 -0.9681  1.0682
   46A     H5'2 1436   4.556   4.900   3.680 -0.7292  2.5294  0.3852
   46A      C4' 1437   4.617   4.735   3.807 -0.5805 -0.2796 -0.1250
   46A      H4' 1438   4.717   4.776   3.823 -0.7968  0.4913 -0.6958
   46A      O4' 1439   4.568   4.669   3.921 -0.5256 -0.3312 -0.1310
   46A      C1' 1440   4.587   4.530   3.911 -0.3392 -0.3170  0.0162
   46A      H1' 1441   4.651   4.494   3.992  1.0729  0.5239 -0.6780
   46A       N9 1442   4.462   4.453   3.910 -0.7555  0.3462  0.8210
   46A       C8 1443   4.333   4.493   3.885 -0.5050  0.3124 -0.5565
   46A       H8 1444   4.310   4.593   3.851 -0.2168  0.6455  0.2058
   46A       N7 1445   4.242   4.402   3.905 -0.2521  0.1532 -0.1262
   46A       C5 1446   4.313   4.289   3.943 -0.3320 -0.0667 -0.6213
   46A       C6 1447   4.289   4.154   3.973  0.4542 -0.2733 -0.9031
   46A       N6 1448   4.166   4.102   3.982  0.0856  0.6873 -0.2746
   46A      H61 1449   4.083   4.159   3.979 -0.8570 -0.5897  0.6938
   46A      H62 1450   4.165   4.003   4.001  1.8014  0.1826 -2.3487
   46A       N1 1451   4.383   4.065   4.006  0.2589  0.0296  0.5090
   46A       C2 1452   4.507   4.112   4.008  0.3981 -0.3058 -0.0653
   46A       H2 1453   4.583   4.046   4.047  0.7846 -0.5513 -1.2087
   46A       N3 1454   4.544   4.237   3.989 -0.3916 -0.0066  0.3300
   46A       C4 1455   4.445   4.324   3.955 -0.2734 -0.2601 -0.6969
   46A      C3' 1456   4.632   4.625   3.703  0.6765 -0.1670 -0.0793
   46A      H3' 1457   4.529   4.605   3.672  1.6881 -1.5293 -3.0028
   46A      C2' 1458   4.673   4.504   3.787  0.0797 -0.1333  0.2659
   46A     H2'1 1459   4.638   4.406   3.755  0.6277  0.0323 -0.8962
   46A      O2' 1460   4.808   4.485   3.824  0.0781 -0.0036  0.3412
   46A     HO'2 1461   4.865   4.509   3.751 -0.1405 -0.8423 -0.1163
   46A      O3' 1462   4.708   4.663   3.590  1.0045 -0.3693  0.0726
   47G        P 1463   4.678   4.585   3.453 -0.1992  0.0583  0.0859
   47G      O1P 1464   4.777   4.629   3.353 -0.6574  0.5971 -0.1362
   47G      O2P 1465   4.535   4.614   3.426  0.0070  0.4945 -0.5509
   47G      O5' 1466   4.698   4.433   3.503  0.3678  0.0504 -0.1616
   47G      C5' 1467   4.831   4.387   3.509  0.2397 -0.2419  0.4230
   47G     H5'1 1468   4.884   4.446   3.584 -0.9708  0.7669  0.5112
   47G     H5'2 1469   4.881   4.403   3.414  1.8296 -0.3888  1.1964
   47G      C4' 1470   4.840   4.237   3.537 -0.2091 -0.3540 -0.0106
   47G      H4' 1471   4.948   4.226   3.549 -0.2839 -0.6191  0.4656
   47G      O4' 1472   4.776   4.202   3.658 -0.4004 -0.2289 -0.0748
   47G      C1' 1473   4.704   4.083   3.634 -0.6729 -0.1136  0.1668
   47G      H1' 1474   4.736   4.015   3.713  1.0369  1.0292  0.5257
   47G       N9 1475   4.557   4.082   3.636 -0.6832 -0.0946 -0.3768
   47G       C8 1476   4.473   4.183   3.595 -0.2511  0.3948 -0.0580
   47G       H8 1477   4.516   4.277   3.562  2.8790 -1.7689 -2.8060
   47G       N7 1478   4.347   4.151   3.607 -0.0834 -0.0412  0.6379
   47G       C5 1479   4.352   4.019   3.650 -0.0391 -0.2070  0.1347
   47G       C6 1480   4.248   3.930   3.686  0.2554 -0.6520 -0.1193
   47G       O6 1481   4.128   3.953   3.687  0.4322  0.2748 -0.0742
   47G       N1 1482   4.286   3.798   3.709 -0.1306 -0.7709 -0.1621
   47G       H1 1483   4.217   3.733   3.746 -0.2493 -1.9307 -2.2818
   47G       C2 1484   4.419   3.765   3.722  0.0201  0.1083  0.6015
   47G       N2 1485   4.444   3.637   3.752 -0.3973  0.0300  0.6204
   47G      H21 1486   4.368   3.574   3.770 -1.0258  0.6035  0.0134
   47G      H22 1487   4.540   3.611   3.773 -0.7475 -2.1397 -0.2357
   47G       N3 1488   4.522   3.850   3.705  0.2353 -0.2290  0.2057
   47G       C4 1489   4.480   3.972   3.664 -0.1007 -0.3954  0.0537
   47G      C3' 1490   4.785   4.154   3.422 -0.4623 -0.1314 -0.0488
   47G      H3' 1491   4.695   4.200   3.381  1.4047  1.5912 -2.5080
   47G      C2' 1492   4.754   4.027   3.501  0.3227  0.0025  0.4836
   47G     H2'1 1493   4.682   3.963   3.450  0.1231  0.8001 -0.2588
   47G      O2' 1494   4.875   3.956   3.517  0.4801 -0.0079 -0.6647
   47G     HO'2 1495   4.947   4.009   3.482  2.0608 -1.1940  0.6821
   47G      O3' 1496   4.878   4.137   3.318 -0.1991  0.4322  0.0929
   48U        P 1497   4.826   4.081   3.177  0.2223 -0.0228  0.1157
   48U      O1P 1498   4.943   4.084   3.086  0.2964  0.3613  0.2208
   48U      O2P 1499   4.712   4.164   3.132  0.5952  0.4697  0.0674
   48U      O5' 1500   4.766   3.932   3.185  0.4337 -0.1312 -0.2760
   48U      C5' 1501   4.846   3.818   3.208  0.2977 -0.2007 -0.1473
   48U     H5'1 1502   4.920   3.840   3.285  2.2903 -2.6801 -1.2231
   48U     H5'2 1503   4.895   3.794   3.114  2.0254  1.1082  0.3683
   48U      C4' 1504   4.767   3.696   3.254  0.0541  0.1186  0.2905
   48U      H4' 1505   4.844   3.622   3.272 -0.1430 -0.2949 -0.5254
   48U      O4' 1506   4.682   3.729   3.362 -0.3477  0.0596 -0.0020
   48U      C1' 1507   4.575   3.638   3.359  0.0672 -0.4599  0.6217
   48U      H1' 1508   4.578   3.568   3.443 -1.4924 -2.2988 -0.7649
   48U       N1 1509   4.450   3.717   3.366  0.2388 -0.1856  0.6005
   48U       C6 1510   4.448   3.847   3.325 -0.7151 -0.4801 -0.3165
   48U       H6 1511   4.536   3.895   3.286 -0.8825 -0.8245 -1.1485
   48U       C5 1512   4.339   3.927   3.333  0.1145  0.6507 -0.1060
   48U       H5 1513   4.331   4.030   3.302  1.7808  0.4038 -1.5232
   48U       C4 1514   4.214   3.863   3.367  0.5031 -0.0147  0.0975
   48U       O4 1515   4.109   3.925   3.385  0.2914 -0.3060 -0.1373
   48U       N3 1516   4.218   3.727   3.394 -0.1709 -0.0564  0.0071
   48U       H3 1517   4.129   3.686   3.419  0.1770 -0.0988  1.2493
   48U       C2 1518   4.334   3.651   3.402 -0.1248 -0.0111 -0.2201
   48U       O2 1519   4.327   3.529   3.415  0.0615  0.0479  0.4936
   48U      C3' 1520   4.670   3.651   3.145  0.2422  0.0038  0.1709
   48U      H3' 1521   4.614   3.740   3.118  1.0045  0.2134 -0.7778
   48U      C2' 1522   4.580   3.560   3.228  0.1211  0.1840  0.2372
   48U     H2'1 1523   4.481   3.551   3.183  0.3911  0.9917 -0.5584
   48U      O2' 1524   4.637   3.436   3.265 -0.2850 -0.1484 -0.2442
   48U     HO'2 1525   4.567   3.374   3.285 -0.3858 -0.8190 -2.4126
   48U      O3' 1526   4.732   3.601   3.028 -0.1899  0.0567 -0.0850
   49C        P 1527   4.663   3.596   2.883 -0.0819  0.4040 -0.1481
   49C      O1P 1528   4.757   3.532   2.789 -0.1288  0.4396 -0.2186
   49C      O2P 1529   4.605   3.727   2.846  0.0733  0.5394  0.0826
   49C      O5' 1530   4.538   3.498   2.910  0.1389  0.2242  0.2346
   49C      C5' 1531   4.553   3.359   2.928  0.3070  0.1963 -0.1221
   49C     H5'1 1532   4.632   3.345   3.002 -0.8736  2.1569  1.6178
   49C     H5'2 1533   4.583   3.311   2.835  0.5991  1.4340 -0.7005
   49C      C4' 1534   4.423   3.290   2.967  0.2624  0.2584 -0.1588
   49C      H4' 1535   4.455   3.187   2.985  2.2873  0.7268 -0.7731
   49C      O4' 1536   4.363   3.339   3.085  0.2836 -0.0793 -0.0050
   49C      C1' 1537   4.223   3.331   3.076  0.2728 -0.1752  0.2379
   49C      H1' 1538   4.184   3.273   3.159  0.0082  0.4332  0.5527
   49C       N1 1539   4.168   3.468   3.083  0.1339 -0.2266  0.1662
   49C       C6 1540   4.234   3.584   3.051  0.2820 -0.1455  0.7580
   49C       H6 1541   4.336   3.574   3.018 -0.2109 -1.8775 -0.3550
   49C       C5 1542   4.177   3.705   3.068  0.3692  0.0058 -0.0068
   49C       H5 1543   4.232   3.794   3.042 -1.1852  0.9017 -0.3556
   49C       C4 1544   4.041   3.707   3.115  0.2977 -0.3625 -0.1966
   49C       N4 1545   3.987   3.827   3.136 -0.1207 -0.6628  0.4573
   49C      H41 1546   4.032   3.918   3.135  0.8228 -1.1212  0.0038
   49C      H42 1547   3.893   3.824   3.172  0.3002 -2.3201  1.5325
   49C       N3 1548   3.973   3.595   3.143 -0.0330 -0.1654 -0.2192
   49C       C2 1549   4.035   3.477   3.120  0.0272 -0.1303 -0.2334
   49C       O2 1550   3.966   3.377   3.133 -0.0608  0.0031  0.3451
   49C      C3' 1551   4.312   3.293   2.862 -0.0044 -0.2252  0.1048
   49C      H3' 1552   4.299   3.398   2.838  1.9790  0.9646  3.4695
   49C      C2' 1553   4.192   3.255   2.948  0.0056 -0.0230  0.2097
   49C     H2'1 1554   4.103   3.291   2.897 -1.5533 -3.8287 -0.1515
   49C      O2' 1555   4.195   3.116   2.972 -0.1039 -0.0484  0.0771
   49C     HO'2 1556   4.272   3.088   2.922  0.1268  1.1241 -0.2461
   49C      O3' 1557   4.318   3.206   2.751  0.1339  0.1164 -0.1553
   50G        P 1558   4.226   3.223   2.620  0.0740  0.2560 -0.0958
   50G      O1P 1559   4.259   3.099   2.546 -0.4709  0.3699 -0.5332
   50G      O2P 1560   4.254   3.353   2.556  0.0655  0.0358 -0.5562
   50G      O5' 1561   4.072   3.210   2.665  0.0662  0.0540 -0.1778
   50G      C5' 1562   4.013   3.086   2.697 -0.0374  0.0539 -0.3676
   50G     H5'1 1563   4.051   3.025   2.779 -1.6735  0.1794  0.5269
   50G     H5'2 1564   4.009   3.015   2.614  3.1251  0.0592 -0.6723
   50G      C4' 1565   3.868   3.106   2.738 -0.1091 -0.9815 -0.0874
   50G      H4' 1566   3.820   3.008   2.737 -0.8927 -0.6066 -0.2379
   50G      O4' 1567   3.850   3.179   2.857  0.2565  0.0933 -0.6801
   50G      C1' 1568   3.738   3.266   2.859  0.0960 -0.1110 -0.7197
   50G      H1' 1569   3.675   3.232   2.941  1.8884  0.1883  0.8422
   50G       N9 1570   3.763   3.411   2.861  0.1714 -0.1331  0.4916
   50G       C8 1571   3.881   3.472   2.827  0.2783  0.0493  1.1757
   50G       H8 1572   3.972   3.425   2.792  0.3535  0.2213  1.1341
   50G       N7 1573   3.864   3.602   2.827 -0.1810  0.0085 -0.2888
   50G       C5 1574   3.735   3.626   2.874  0.1321 -0.2786  0.7386
   50G       C6 1575   3.664   3.745   2.902  0.1634 -0.1933  0.4531
   50G       O6 1576   3.701   3.862   2.900 -0.0624 -0.1250  0.0574
   50G       N1 1577   3.538   3.721   2.956 -0.1110 -0.1223 -0.1454
   50G       H1 1578   3.477   3.798   2.980  0.7390  1.2463 -2.0825
   50G       C2 1579   3.480   3.597   2.972  0.0565 -0.1759  0.0489
   50G       N2 1580   3.351   3.594   3.006  0.0478  0.9762  0.1670
   50G      H21 1581   3.308   3.684   3.021  0.7177  1.4345 -0.5918
   50G      H22 1582   3.301   3.510   3.033  0.5058  0.7889  0.4505
   50G       N3 1583   3.542   3.485   2.932  0.0060 -0.3179  0.3684
   50G       C4 1584   3.670   3.507   2.892 -0.1334 -0.2536 -0.0410
   50G      C3' 1585   3.785   3.190   2.641  0.5984  0.1044  0.2294
   50G      H3' 1586   3.836   3.284   2.622 -1.5958  1.0419 -1.4423
   50G      C2' 1587   3.666   3.229   2.729 -0.1065 -0.1196 -0.6053
   50G     H2'1 1588   3.614   3.314   2.686 -3.6947 -0.9804  1.6024
   50G      O2' 1589   3.572   3.124   2.739 -0.4522  0.2574  0.2700
   50G     HO'2 1590   3.606   3.070   2.811 -0.9298 -1.5844 -0.8028
   50G      O3' 1591   3.760   3.125   2.519  0.1102  0.1219  0.3166
   50G      H3T 1592   3.693   3.173   2.469  0.4372 -0.6075 -0.8801
   51SOL     OW 1593   2.949   2.536   1.204  1.1370  0.0800 -0.1212
   51SOL    HW1 1594   2.900   2.495   1.133  0.0227 -2.7918  2.0789
   51SOL    HW2 1595   2.910   2.623   1.213 -2.3117 -1.3434  0.2126
   52SOL     OW 1596   3.854   4.192   4.195 -0.0184 -0.2661  0.2503
   52SOL    HW1 1597   3.927   4.202   4.256 -1.1299 -2.0869  2.0430
   52SOL    HW2 1598   3.861   4.101   4.165 -1.4478 -0.4376  0.3700
   53SOL     OW 1599   5.911   6.650   9.945  0.6399  0.5049 -0.0424
   53SOL    HW1 1600   5.917   6.571   9.891  0.4955  0.8866 -0.6195
   53SOL    HW2 1601   5.820   6.677   9.938  0.5331  0.3441  0.6987
   54SOL     OW 1602   6.323   6.067  10.971  0.0893 -0.1099 -0.3978
   54SOL    HW1 1603   6.238   6.028  10.950  1.2272 -2.3328 -1.2261
   54SOL    HW2 1604   6.358   6.094  10.886  0.4139  0.3776 -0.1115
   55SOL     OW 1605   5.646   6.655   8.800 -0.0106  0.0138  0.4377
   55SOL    HW1 1606   5.584   6.659   8.727  0.2574  0.1134  0.2102
   55SOL    HW2 1607   5.699   6.577   8.782  0.5496  0.4590  0.1127
   56SOL     OW 1608   7.747   4.590   4.846 -0.1421  0.5300 -0.6659
   56SOL    HW1 1609   7.671   4.591   4.904 -1.3419 -0.6465 -2.1565
   56SOL    HW2 1610   7.711   4.600   4.758  1.4345  0.0643 -1.4083
   57SOL     OW 1611   4.383   5.897   6.331  0.8436  0.6399 -0.0072
   57SOL    HW1 1612   4.364   5.960   6.262 -0.3202  0.2515 -0.0498
   57SOL    HW2 1613   4.385   5.812   6.287  0.8542  0.4736  0.3117
   58SOL     OW 1614   3.574   5.320  11.135 -0.2145  0.1834  0.2596
   58SOL    HW1 1615   3.655   5.368  11.150 -0.8668  0.9433  1.4519
   58SOL    HW2 1616   3.537   5.306  11.222 -1.2619 -0.3485 -0.2449
   59SOL     OW 1617   4.635   7.918   5.886 -0.0299  0.0459  0.5853
   59SOL    HW1 1618   4.694   7.977   5.934 -0.0953 -0.9944  2.0134
   59SOL    HW2 1619   4.655   7.831   5.920  0.0587 -0.7959 -1.4769
   60SOL     OW 1620   5.989   4.119   8.264  0.3801  0.1510  0.4147
   60SOL    HW1 1621   6.064   4.176   8.280 -0.1352  0.8467  0.3914
   60SOL    HW2 1622   6.027   4.032   8.254  1.2720  0.6254 -0.4801
   61SOL     OW 1623   0.014   4.138  12.355  0.4762 -0.3043 -0.0768
   61SOL    HW1 1624   0.096   4.090  12.340  1.5314  0.5817  2.2640
   61SOL    HW2 1625  -0.051   4.093  12.301  2.9003  0.3841 -3.9157
   62SOL     OW 1626   1.420   1.291   7.780  0.0817 -0.2339 -0.1930
   62SOL    HW1 1627   1.412   1.227   7.710 -1.5756 -0.0655 -0.1989
   62SOL    HW2 1628   1.358   1.261   7.847  2.1046 -0.7851  1.5566
   63SOL     OW 1629   4.709   0.220  11.549 -0.3865  0.3391 -0.1580
   63SOL    HW1 1630   4.670   0.141  11.588  0.0328 -0.5436 -1.4525
   63SOL    HW2 1631   4.637   0.262  11.503 -0.5351  0.5371  0.2487
   64SOL     OW 1632   4.470   0.438   6.295  0.1017  0.6437  0.3549
   64SOL    HW1 1633   4.523   0.398   6.365 -0.5810 -1.7421 -0.4225
   64SOL    HW2 1634   4.380   0.433   6.327 -0.3182 -1.2366 -0.9581
   65SOL     OW 1635   4.687   7.837   6.383 -0.0260  0.2971  0.6759
   65SOL    HW1 1636   4.743   7.884   6.321  0.3984  0.9179  1.5055
   65SOL    HW2 1637   4.726   7.749   6.387  0.6428  0.5981  0.9292
   66SOL     OW 1638   0.077   2.652   8.224 -0.2325 -0.4480 -0.2833
   66SOL    HW1 1639   0.030   2.659   8.141 -0.3161 -1.4267 -0.3279
   66SOL    HW2 1640   0.017   2.689   8.289 -0.3847 -0.1745 -0.5735
   67SOL     OW 1641   2.218   3.365   3.036  0.5434 -0.2149  0.2741
   67SOL    HW1 1642   2.208   3.272   3.056 -0.2202  0.0081  0.9951
   67SOL    HW2 1643   2.163   3.380   2.959 -0.2700 -0.1429  0.8504
   68SOL     OW 1644   2.616   1.934   1.054  0.1891 -0.2962  0.2188
   68SOL    HW1 1645   2.611   2.000   1.122 -1.1320  0.0389 -0.1668
   68SOL    HW2 1646   2.684   1.966   0.994  1.4565 -0.6692  1.4189
   69SOL     OW 1647   5.070   5.019   9.148 -0.9304 -0.0873 -0.5470
   69SOL    HW1 1648   5.071   4.953   9.079 -1.0040  0.1099 -0.7372
   69SOL    HW2 1649   5.070   4.969   9.230  0.3689 -0.3239 -0.6689
   70SOL     OW 1650   7.014   6.547   4.971 -0.3994 -0.1305  0.3635
   70SOL    HW1 1651   7.037   6.639   4.977  0.0815 -0.1945 -0.4000
   70SOL    HW2 1652   7.085   6.502   5.017  0.4982 -0.2543 -1.0876
   71SOL     OW 1653   3.295   3.461   2.112 -0.1225  0.3281 -0.4792
   71SOL    HW1 1654   3.332   3.510   2.186  0.0900  0.1543 -0.4723
   71SOL    HW2 1655   3.345   3.490   2.036 -0.0197  0.1415 -0.4802
   72SOL     OW 1656   7.208   2.386  11.103 -0.3414  0.1706 -0.1004
   72SOL    HW1 1657   7.194   2.291  11.104  0.6693  0.0118  0.3620
   72SOL    HW2 1658   7.168   2.415  11.021  0.6058 -0.8718 -0.9719
   73SOL     OW 1659   3.418   0.326   9.108  0.3388 -0.0573  0.2489
   73SOL    HW1 1660   3.416   0.411   9.064  0.8135 -0.1118  0.1139
   73SOL    HW2 1661   3.478   0.273   9.055 -1.1793 -1.0043 -0.6174
   74SOL     OW 1662   3.237   5.730   8.319 -0.4105 -0.0962 -0.2490
   74SOL    HW1 1663   3.148   5.742   8.353  0.0059 -1.0276  1.2546
   74SOL    HW2 1664   3.224   5.680   8.238 -1.2292 -0.7017  0.2380
   75SOL     OW 1665   5.123   4.679   8.727  0.5027  0.1408  0.0936
   75SOL    HW1 1666   5.198   4.640   8.682 -0.6328  0.0323 -1.8202
   75SOL    HW2 1667   5.063   4.703   8.656 -0.9839  0.8217  1.5314
   76SOL     OW 1668   6.734   5.023   0.217 -0.4897  0.2907  0.5549
   76SOL    HW1 1669   6.778   5.107   0.214 -0.1233  0.0866 -0.1649
   76SOL    HW2 1670   6.788   4.966   0.161 -0.1753 -0.6896  1.8089
   77SOL     OW 1671   7.179   6.731   5.754 -0.3607  0.0187  0.4824
   77SOL    HW1 1672   7.085   6.738   5.736 -0.1644 -0.6128 -0.9489
   77SOL    HW2 1673   7.190   6.643   5.791 -0.2206 -0.2908 -0.2730
   78SOL     OW 1674   5.437   7.582  10.316  0.0845 -0.5729 -0.0999
   78SOL    HW1 1675   5.380   7.655  10.341  0.4949 -0.6961  1.3328
   78SOL    HW2 1676   5.387   7.533  10.250 -1.3556 -0.5165  0.8980
   79SOL     OW 1677   5.370   0.419   7.099 -0.0802  0.0297  0.4315
   79SOL    HW1 1678   5.429   0.357   7.056  0.3835  0.7550 -0.0166
   79SOL    HW2 1679   5.412   0.437   7.184 -0.5296 -0.7148  0.8243
   80SOL     OW 1680   4.256   4.026  11.262  0.1719  0.1105 -0.2648
   80SOL    HW1 1681   4.300   4.071  11.334  1.5465  2.4709 -2.3906
   80SOL    HW2 1682   4.328   3.996  11.206 -0.8491 -0.7727 -1.1473
   81SOL     OW 1683   1.862   0.188  11.649  0.0096 -0.0955 -0.2938
   81SOL    HW1 1684   1.769   0.201  11.667  0.1431 -0.0524  0.3929
   81SOL    HW2 1685   1.906   0.249  11.708  0.4886 -0.4000 -0.3328
   82SOL     OW 1686   4.783   2.281   1.528 -0.4807 -0.2785 -0.5304
   82SOL    HW1 1687   4.805   2.344   1.459  3.0425  0.0426  0.6954
   82SOL    HW2 1688   4.708   2.320   1.573 -0.2412  1.5686 -1.6310
   83SOL     OW 1689   7.887   2.494   0.827 -0.1153 -0.2146  0.0574
   83SOL    HW1 1690   7.981   2.478   0.822 -0.1745 -1.1211  1.3765
   83SOL    HW2 1691   7.878   2.589   0.819  0.7387 -0.2709 -1.9396
   84SOL     OW 1692   4.216   7.712   2.667 -0.0669  0.0553  0.6790
   84SOL    HW1 1693   4.257   7.674   2.744  0.4042 -1.2804 -0.1921
   84SOL    HW2 1694   4.226   7.645   2.599 -0.9023  0.9928 -0.4068
   85SOL     OW 1695   2.300   0.785   4.191 -0.1590  0.3594  0.4665
   85SOL    HW1 1696   2.311   0.825   4.105  0.6717  0.1845  0.4816
   85SOL    HW2 1697   2.386   0.748   4.212 -0.2189  0.7751  1.5623
   86SOL     OW 1698   1.859   5.468   6.786  0.5503  0.0100  0.1475
   86SOL    HW1 1699   1.798   5.406   6.747 -0.2891  0.3747  0.8559
   86SOL    HW2 1700   1.884   5.526   6.714 -0.9721  0.6669  0.1058
   87SOL     OW 1701   6.189   4.171   3.301  0.0388  0.2911  0.0283
   87SOL    HW1 1702   6.094   4.183   3.296 -0.0497 -0.0248  0.6984
   87SOL    HW2 1703   6.212   4.126   3.220 -0.0979  1.9675 -0.9747
   88SOL     OW 1704   2.049   3.163   1.904 -0.3377 -0.4330  0.6697
   88SOL    HW1 1705   1.961   3.138   1.934 -0.6395 -0.3859 -0.1528
   88SOL    HW2 1706   2.073   3.095   1.842  0.1162 -0.3237  0.7273
   89SOL     OW 1707   2.798   6.565   7.406  0.0867  0.7120 -0.2260
   89SOL    HW1 1708   2.774   6.652   7.438 -0.3056  0.5321 -0.0329
   89SOL    HW2 1709   2.822   6.516   7.485  0.1230  0.5836 -0.3159
   90SOL     OW 1710   6.593   3.923   1.372  0.3396 -0.5070  0.1120
   90SOL    HW1 1711   6.594   3.874   1.289  3.0012 -0.2785 -0.0887
   90SOL    HW2 1712   6.576   4.014   1.345  1.1416 -0.4408 -0.1992
   91SOL     OW 1713   0.623   1.353   4.898  0.1400 -0.0545  1.1929
   91SOL    HW1 1714   0.628   1.377   4.805  1.0497 -3.5675  0.2018
   91SOL    HW2 1715   0.690   1.407   4.941  1.7678 -0.4180 -0.7448
   92SOL     OW 1716   2.140   0.262   6.291 -0.0855 -0.2089 -0.4119
   92SOL    HW1 1717   2.086   0.218   6.357 -0.0636 -1.0130 -0.9161
   92SOL    HW2 1718   2.084   0.330   6.255 -0.0299  0.3671  0.5732
   93SOL     OW 1719   4.941   2.607   2.926 -0.6248  0.5530 -0.5539
   93SOL    HW1 1720   4.960   2.587   2.834 -1.4041  2.3806 -1.1502
   93SOL    HW2 1721   4.849   2.634   2.926 -0.3414  1.5976  0.5760
   94SOL     OW 1722   3.977   5.711   6.211 -0.0240  0.1109  0.3648
   94SOL    HW1 1723   3.903   5.654   6.233 -0.2097 -1.0519 -2.8315
   94SOL    HW2 1724   4.053   5.654   6.215 -0.2144 -0.5785 -2.9010
   95SOL     OW 1725   4.844   4.291   4.325  0.7302  0.0437 -0.6216
   95SOL    HW1 1726   4.765   4.241   4.347  0.4132  1.2083  1.0869
   95SOL    HW2 1727   4.823   4.333   4.241 -0.8556  1.0071  0.2016
   96SOL     OW 1728   2.585   1.255   0.109 -0.0386  0.3957  0.6000
   96SOL    HW1 1729   2.577   1.297   0.023 -0.5637  0.8807  0.8862
   96SOL    HW2 1730   2.549   1.168   0.096 -2.8516  1.4027  1.0206
   97SOL     OW 1731   3.033   1.609   6.640 -0.1086 -0.7974 -0.0438
   97SOL    HW1 1732   3.106   1.604   6.702 -0.1505  1.3080  0.2403
   97SOL    HW2 1733   2.956   1.619   6.695 -0.2607  0.0088 -0.3820
   98SOL     OW 1734   5.123   1.924   7.557  0.0200 -0.0546  0.2570
   98SOL    HW1 1735   5.097   1.911   7.466  0.0073 -1.2136  0.4080
   98SOL    HW2 1736   5.043   1.906   7.607 -0.0908  1.0224  0.4787
   99SOL     OW 1737   3.974   0.748   8.876  0.2980  0.1075 -0.6002
   99SOL    HW1 1738   4.057   0.795   8.875  0.5010 -0.2026  0.4957
   99SOL    HW2 1739   3.999   0.655   8.873 -0.0489  0.0355 -1.3936
  100SOL     OW 1740   7.509   4.235   5.936 -0.3984  0.1115 -0.5404
  100SOL    HW1 1741   7.492   4.145   5.963 -0.9766  0.2357 -0.4784
  100SOL    HW2 1742   7.422   4.271   5.916  0.0221 -0.0418 -2.8178
  101SOL     OW 1743   0.733   2.655   1.999  0.3922  0.8145 -0.2083
  101SOL    HW1 1744   0.763   2.565   2.011  1.0043  0.8324 -1.3986
  101SOL    HW2 1745   0.790   2.690   1.930  1.2658  2.6304  1.3012
  102SOL     OW 1746   7.571   6.277   3.018  0.0667 -0.0353  0.1082
  102SOL    HW1 1747   7.509   6.329   2.967 -0.0083  0.4144  0.6504
  102SOL    HW2 1748   7.517   6.233   3.084  0.2422 -0.1292  0.1900
  103SOL     OW 1749   0.609   3.256  10.220 -0.5410  0.1812 -0.2990
  103SOL    HW1 1750   0.599   3.284  10.311 -1.5079 -0.6829 -0.1188
  103SOL    HW2 1751   0.703   3.262  10.203 -0.5407  2.1498  0.1472
  104SOL     OW 1752   3.621   1.463   6.234 -0.3579  0.2241 -0.4995
  104SOL    HW1 1753   3.615   1.527   6.305  1.2043 -0.1210 -0.0203
  104SOL    HW2 1754   3.533   1.459   6.198 -1.0255  0.9231  0.9697
  105SOL     OW 1755   1.105   5.835   5.079 -0.2858  0.4710  0.4617
  105SOL    HW1 1756   1.026   5.888   5.085 -0.3656  0.1854  3.1223
  105SOL    HW2 1757   1.159   5.863   5.153  0.9352 -1.1460  0.2499
  106SOL     OW 1758   7.000   4.231   1.271  0.3115 -0.4861  0.2687
  106SOL    HW1 1759   6.981   4.141   1.243  1.1452 -0.6951  0.3619
  106SOL    HW2 1760   6.940   4.285   1.219 -0.3073 -1.1011  0.3246
  107SOL     OW 1761   0.873   4.507   8.363 -0.1115 -0.0380  0.1973
  107SOL    HW1 1762   0.828   4.479   8.443 -1.1396 -0.2174 -0.4196
  107SOL    HW2 1763   0.822   4.468   8.292  0.7127  0.2170 -0.5565
  108SOL     OW 1764   7.026   3.331   1.878 -0.5021 -0.1653  0.3413
  108SOL    HW1 1765   7.043   3.303   1.968 -1.6869  0.1068  0.6634
  108SOL    HW2 1766   7.080   3.409   1.868  0.6319 -0.9075  0.3687
  109SOL     OW 1767   0.163   5.908   9.411 -0.0398 -0.3448  0.3260
  109SOL    HW1 1768   0.130   5.998   9.416  0.2283 -0.2787  1.0507
  109SOL    HW2 1769   0.142   5.879   9.322 -0.7771  0.1832  0.3221
  110SOL     OW 1770   7.256   2.373   5.687  0.8675 -0.1528  0.0912
  110SOL    HW1 1771   7.204   2.446   5.654  2.9291  1.4469  0.1997
  110SOL    HW2 1772   7.314   2.412   5.753 -0.3207 -2.5135  2.7645
  111SOL     OW 1773   7.593   0.546   2.101  0.0631 -0.5681  0.4431
  111SOL    HW1 1774   7.591   0.634   2.065 -0.9240  0.2364  2.3660
  111SOL    HW2 1775   7.501   0.521   2.110  0.3204 -1.6539  0.2917
  112SOL     OW 1776   5.239   2.683  10.222  0.3556 -0.0877 -0.7453
  112SOL    HW1 1777   5.326   2.722  10.236 -0.0640  0.9921 -1.0262
  112SOL    HW2 1778   5.257   2.597  10.183  1.2916  0.2615 -1.1124
  113SOL     OW 1779   5.002   2.479   1.207 -0.1505 -0.3345  0.3490
  113SOL    HW1 1780   4.913   2.478   1.240 -0.2544 -1.0264  0.0686
  113SOL    HW2 1781   5.007   2.403   1.149  0.6599 -0.3770  0.4661
  114SOL     OW 1782   1.513   2.993   8.535 -0.3610  0.5097  0.2102
  114SOL    HW1 1783   1.432   3.042   8.545 -0.2204  0.9803 -0.8395
  114SOL    HW2 1784   1.486   2.906   8.508 -0.5690  0.2677  1.1693
  115SOL     OW 1785   5.899   4.024  12.054  0.2371  0.3109  0.2622
  115SOL    HW1 1786   5.908   4.000  11.962 -1.0387  0.2893  0.1160
  115SOL    HW2 1787   5.960   3.966  12.100  0.7897  0.2312 -0.5506
  116SOL     OW 1788   3.403   2.554   1.882  0.0792 -0.2522  0.3476
  116SOL    HW1 1789   3.337   2.580   1.817  1.5321  2.9938  0.0278
  116SOL    HW2 1790   3.443   2.476   1.844 -0.6952  0.2037 -1.5338
  117SOL     OW 1791   2.883   1.208   3.678  0.2991  0.4668 -0.1283
  117SOL    HW1 1792   2.960   1.242   3.724 -1.4444  3.4691  0.8213
  117SOL    HW2 1793   2.809   1.245   3.725 -1.7072 -0.0634 -2.6824
  118SOL     OW 1794   7.823   5.371   2.778  0.7626 -0.1604 -0.2270
  118SOL    HW1 1795   7.852   5.280   2.783  1.4169  0.0627  0.1304
  118SOL    HW2 1796   7.728   5.365   2.767  0.9191 -0.8919 -1.2931
  119SOL     OW 1797   7.846   7.123   4.265  0.4269 -0.3270  0.9773
  119SOL    HW1 1798   7.775   7.100   4.326 -0.9883  0.2405 -0.3846
  119SOL    HW2 1799   7.806   7.186   4.205  2.1999  0.2323  0.3355
  120SOL     OW 1800   5.668   5.826   1.479  0.1660 -0.5992  0.2665
  120SOL    HW1 1801   5.650   5.831   1.573 -0.6996  1.0931  0.0554
  120SOL    HW2 1802   5.738   5.890   1.464 -1.4145  1.0242 -0.5652
  121SOL     OW 1803   5.896   4.736  10.655 -0.2787  0.0349 -0.3099
  121SOL    HW1 1804   5.945   4.734  10.573  0.3541  1.8960 -0.0347
  121SOL    HW2 1805   5.939   4.671  10.711  2.2812  1.9064  0.0889
  122SOL     OW 1806   4.243   7.339   3.577 -0.5690 -0.0426  0.4093
  122SOL    HW1 1807   4.314   7.391   3.540 -2.1348  2.7082  0.9561
  122SOL    HW2 1808   4.287   7.274   3.632  1.5262  1.3181  0.4705
  123SOL     OW 1809   0.099   0.206   1.681 -0.2381  0.0363 -0.5639
  123SOL    HW1 1810   0.169   0.241   1.736 -0.4270  1.2921 -1.0794
  123SOL    HW2 1811   0.022   0.256   1.705 -0.6157 -0.2902 -1.0738
  124SOL     OW 1812   7.322   3.387   4.085  0.4293  0.2849 -0.8361
  124SOL    HW1 1813   7.257   3.431   4.030  2.9700  3.1858 -1.7803
  124SOL    HW2 1814   7.401   3.384   4.031  2.2379  0.6801  1.6362
  125SOL     OW 1815   3.750   3.920   5.037 -0.3292  0.4156  0.1945
  125SOL    HW1 1816   3.842   3.897   5.055  0.0196 -0.3789 -2.2814
  125SOL    HW2 1817   3.744   4.013   5.060  0.8253  0.2581  1.2590
  126SOL     OW 1818   5.495   5.619   3.489  0.1022 -0.3699  0.4740
  126SOL    HW1 1819   5.425   5.616   3.424  0.7173 -1.3752 -0.1736
  126SOL    HW2 1820   5.552   5.545   3.467  0.8509 -0.1555  1.5716
  127SOL     OW 1821   0.627   1.241   0.108 -0.2268 -0.0605  0.0806
  127SOL    HW1 1822   0.692   1.178   0.078  0.2687  0.5122 -0.0529
  127SOL    HW2 1823   0.574   1.259   0.031  0.1122  0.2700 -0.0769
  128SOL     OW 1824   6.921   2.232   0.958  0.6763  0.0017  0.1125
  128SOL    HW1 1825   6.871   2.175   1.017  1.1142  0.0046  0.4929
  128SOL    HW2 1826   6.903   2.198   0.870  2.1042 -1.6621  0.4227
  129SOL     OW 1827   4.381   2.337   2.764  0.3128  0.4063 -0.1875
  129SOL    HW1 1828   4.350   2.322   2.675  1.3759 -0.1204 -0.4918
  129SOL    HW2 1829   4.464   2.288   2.769  1.3215  2.0970  0.4309
  130SOL     OW 1830   3.417   1.474   1.994 -0.4836  0.1050 -0.3459
  130SOL    HW1 1831   3.422   1.460   1.900 -0.0295 -0.1959 -0.2764
  130SOL    HW2 1832   3.476   1.548   2.011 -0.4691  0.0773 -0.2771
  131SOL     OW 1833   6.679   6.603   3.099 -0.0648  0.4865 -0.2956
  131SOL    HW1 1834   6.664   6.531   3.038  0.3976 -0.9833  1.2580
  131SOL    HW2 1835   6.596   6.614   3.145 -0.2394  1.1940 -0.7711
  132SOL     OW 1836   3.067   4.419   3.083 -0.1768 -0.5382 -0.4623
  132SOL    HW1 1837   3.043   4.352   3.147 -0.9023 -0.2887 -0.4592
  132SOL    HW2 1838   3.094   4.495   3.135  0.9481 -0.9163 -0.4652
  133SOL     OW 1839   6.793   6.558   0.355  0.4779 -0.0870 -0.3322
  133SOL    HW1 1840   6.717   6.550   0.413  1.0521 -1.4840  0.2590
  133SOL    HW2 1841   6.787   6.482   0.297  0.6335  0.5972 -1.2609
  134SOL     OW 1842   2.467   2.484  12.072 -0.4199  0.4392  0.3569
  134SOL    HW1 1843   2.444   2.393  12.054  0.4084  0.1706  0.6328
  134SOL    HW2 1844   2.394   2.534  12.036 -0.4418 -0.2782 -0.6367
  135SOL     OW 1845   3.898   0.594   3.079 -0.8771 -0.0886 -0.2204
  135SOL    HW1 1846   3.874   0.681   3.048  1.1173  0.0053 -1.6727
  135SOL    HW2 1847   3.876   0.536   3.006  2.5636 -0.0548 -1.4493
  136SOL     OW 1848   1.263   4.467   6.085 -0.6576 -0.5655  0.6841
  136SOL    HW1 1849   1.188   4.443   6.031 -0.7041  1.6589 -0.3830
  136SOL    HW2 1850   1.339   4.452   6.028 -0.2945 -2.2935  1.5669
  137SOL     OW 1851   2.576   5.864  12.188  0.2817  0.1398  0.1685
  137SOL    HW1 1852   2.521   5.897  12.259 -0.5138  1.3040 -0.9532
  137SOL    HW2 1853   2.643   5.812  12.232  0.0652  1.1951  1.8103
  138SOL     OW 1854   2.865   6.018   6.323 -0.5240  0.0687  0.1482
  138SOL    HW1 1855   2.913   6.098   6.304 -1.3401  0.5501  0.0930
  138SOL    HW2 1856   2.909   5.981   6.400  0.5049  0.0104 -0.4522
  139SOL     OW 1857   0.916   4.283   6.896 -0.3583  0.2084  0.3718
  139SOL    HW1 1858   0.846   4.346   6.912  1.2744  1.7554  1.9233
  139SOL    HW2 1859   0.903   4.216   6.962 -0.8929  0.0134  0.0712
  140SOL     OW 1860   1.432   5.775   4.236 -0.2483  0.6256 -0.0461
  140SOL    HW1 1861   1.409   5.863   4.204  0.8071  1.4020  1.2470
  140SOL    HW2 1862   1.355   5.722   4.214 -1.7447  2.2991  0.8364
  141SOL     OW 1863   1.330   5.459   3.491 -0.0289  0.5819 -0.1177
  141SOL    HW1 1864   1.366   5.377   3.525 -1.7880  0.1197  0.7193
  141SOL    HW2 1865   1.406   5.505   3.455  0.9744 -1.4917 -0.8184
  142SOL     OW 1866   4.580   4.212   2.837 -0.2754 -0.5945  0.0731
  142SOL    HW1 1867   4.591   4.284   2.899 -0.8579 -0.8037  0.4340
  142SOL    HW2 1868   4.597   4.133   2.889  1.3567 -0.6881 -0.5582
  143SOL     OW 1869   2.660   4.386   0.044 -0.2559 -0.4473  0.0870
  143SOL    HW1 1870   2.663   4.345   0.130  0.0286  0.3693  0.4841
  143SOL    HW2 1871   2.702   4.471   0.057  1.1250 -0.8904 -1.1992
  144SOL     OW 1872   6.122   5.060  12.356  0.0306  0.1445 -0.2608
  144SOL    HW1 1873   6.115   5.028  12.446 -0.0858 -0.2704 -0.4147
  144SOL    HW2 1874   6.130   5.155  12.365 -0.1235  0.1194  0.1817
  145SOL     OW 1875   7.233   5.409   7.635 -0.3702 -0.0869  0.2315
  145SOL    HW1 1876   7.205   5.321   7.663  2.3778 -1.6091 -1.3529
  145SOL    HW2 1877   7.263   5.451   7.715  3.9070 -2.9692  0.5105
  146SOL     OW 1878   7.912   4.172  10.443 -0.0025  0.1187 -0.2158
  146SOL    HW1 1879   7.840   4.227  10.411  0.8575  1.8188  0.5924
  146SOL    HW2 1880   7.903   4.175  10.538  1.0849  0.3176 -0.1083
  147SOL     OW 1881   1.535   7.518  10.086 -0.0125  0.0867  0.1487
  147SOL    HW1 1882   1.498   7.598  10.123  0.9122  2.1508 -2.9714
  147SOL    HW2 1883   1.486   7.447  10.128 -2.3416  2.3522  1.5369
  148SOL     OW 1884   1.455   7.013   4.635 -0.1862 -0.0303 -0.0834
  148SOL    HW1 1885   1.411   7.041   4.715 -1.7423 -1.8658 -0.2196
  148SOL    HW2 1886   1.510   6.939   4.663 -1.0893 -0.9797 -0.7492
  149SOL     OW 1887   1.544   4.623   0.456 -0.4372 -0.0490  0.6138
  149SOL    HW1 1888   1.583   4.701   0.416 -1.8664  0.0576 -0.6303
  149SOL    HW2 1889   1.503   4.655   0.537  0.2505  0.1967  0.8764
  150SOL     OW 1890   2.098   0.930   9.757  0.0216 -0.1832 -0.4341
  150SOL    HW1 1891   2.021   0.987   9.744 -0.2694 -0.4716 -0.0019
  150SOL    HW2 1892   2.062   0.848   9.791  0.5866 -0.0318  0.5830
  151SOL     OW 1893   0.535   6.286   3.621 -0.4954 -0.9341  0.3861
  151SOL    HW1 1894   0.529   6.291   3.526 -1.9138 -0.6183  0.4600
  151SOL    HW2 1895   0.504   6.198   3.643 -0.8875 -0.7515  0.5852
  152SOL     OW 1896   7.455   2.433   7.413 -0.3973  0.1586  0.2558
  152SOL    HW1 1897   7.363   2.415   7.394 -0.4017  0.1088  0.3229
  152SOL    HW2 1898   7.502   2.397   7.338 -0.4146 -0.0347  0.3355
  153SOL     OW 1899   3.192   6.821   5.519  0.3168  0.1554 -0.4037
  153SOL    HW1 1900   3.188   6.916   5.524  1.7185  0.2239 -0.1847
  153SOL    HW2 1901   3.254   6.796   5.587 -0.2870 -0.9565 -0.2291
  154SOL     OW 1902   0.297   2.710   5.067 -0.4666 -0.2794  0.1507
  154SOL    HW1 1903   0.340   2.778   5.016 -0.4818 -0.4756 -0.1266
  154SOL    HW2 1904   0.363   2.642   5.077 -0.0761  0.2472  1.3905
  155SOL     OW 1905   2.462   3.177   4.118  0.0896 -0.7643 -0.1631
  155SOL    HW1 1906   2.411   3.099   4.095 -0.6636 -0.3565  0.0699
  155SOL    HW2 1907   2.448   3.187   4.212  0.9749 -0.8946 -0.0092
  156SOL     OW 1908   5.289   2.827  11.216  0.0790  0.4045  0.3257
  156SOL    HW1 1909   5.381   2.827  11.243 -0.2327 -1.7758  1.6156
  156SOL    HW2 1910   5.249   2.897  11.266  0.3971 -0.8560  2.4844
  157SOL     OW 1911   2.270   4.488   4.290 -0.4252 -0.1914  0.4864
  157SOL    HW1 1912   2.336   4.426   4.320  2.7479  2.9449  0.7282
  157SOL    HW2 1913   2.254   4.464   4.199  3.5567  0.5530 -0.6415
  158SOL     OW 1914   3.951   6.383   6.502 -0.1324  0.5083 -0.2334
  158SOL    HW1 1915   3.930   6.332   6.423 -1.0514  0.0738  0.2748
  158SOL    HW2 1916   3.871   6.430   6.522 -0.1730 -0.0204  0.9065
  159SOL     OW 1917   7.236   6.475  10.103  0.3313 -0.1169  0.1005
  159SOL    HW1 1918   7.272   6.546  10.051 -0.6756 -0.2318 -0.7766
  159SOL    HW2 1919   7.306   6.454  10.165  1.5263  0.0982 -1.1147
  160SOL     OW 1920   6.287   6.713   7.637  0.4622 -0.9030  0.3532
  160SOL    HW1 1921   6.270   6.621   7.657  1.0435 -1.4834 -1.6605
  160SOL    HW2 1922   6.231   6.733   7.563  1.0153  0.1126  0.1817
  161SOL     OW 1923   4.890   5.894   5.412  0.0435 -0.3589  0.6181
  161SOL    HW1 1924   4.903   5.800   5.422 -0.4355 -0.8895 -2.5033
  161SOL    HW2 1925   4.978   5.930   5.398  0.0320 -0.8334 -0.8763
  162SOL     OW 1926   6.228   2.045   7.088 -0.1115  0.7195 -0.4382
  162SOL    HW1 1927   6.160   2.071   7.150  1.1599 -0.5871  1.6223
  162SOL    HW2 1928   6.295   2.113   7.096  1.6102 -1.1419  2.3132
  163SOL     OW 1929   4.671   1.242   2.409 -0.4880  0.3354  0.7597
  163SOL    HW1 1930   4.583   1.252   2.447 -1.0766 -1.5417  0.0373
  163SOL    HW2 1931   4.654   1.206   2.321  1.0051 -0.5479  0.8032
  164SOL     OW 1932   2.360   0.861   2.671  0.1578 -0.2359 -0.5747
  164SOL    HW1 1933   2.445   0.904   2.676  0.2989 -0.6683  1.6464
  164SOL    HW2 1934   2.297   0.933   2.665  0.6303  0.0967 -1.7319
  165SOL     OW 1935   5.620   2.823   1.337  0.0073  0.0487 -0.4272
  165SOL    HW1 1936   5.582   2.904   1.305  0.4146  0.2855 -0.3143
  165SOL    HW2 1937   5.602   2.823   1.431  1.7041  0.9683 -0.0568
  166SOL     OW 1938   4.485   1.727   7.968  0.4497 -0.5577  0.1708
  166SOL    HW1 1939   4.467   1.642   7.929 -3.0139 -0.2307  0.7674
  166SOL    HW2 1940   4.401   1.756   8.004  1.9560  2.1799  1.8816
  167SOL     OW 1941   2.567   3.430  12.183  0.0801  0.0429 -0.0900
  167SOL    HW1 1942   2.508   3.479  12.240  1.6517  2.9644 -0.7946
  167SOL    HW2 1943   2.511   3.394  12.115 -1.0000  2.7347 -0.7498
  168SOL     OW 1944   0.510   7.891   0.221  0.2183  0.3593  0.5053
  168SOL    HW1 1945   0.540   7.890   0.130 -1.0748  0.8220  0.0605
  168SOL    HW2 1946   0.423   7.851   0.218 -0.4984  1.7751  1.2829
  169SOL     OW 1947   6.623   1.581  11.114  0.3222  0.7326  0.6476
  169SOL    HW1 1948   6.702   1.540  11.078 -0.0809  0.7571 -0.3078
  169SOL    HW2 1949   6.551   1.531  11.076 -0.1572  1.8549  0.0405
  170SOL     OW 1950   4.169   7.180   7.239 -0.4758 -0.3714  0.4001
  170SOL    HW1 1951   4.124   7.256   7.274 -1.0269 -0.4273 -0.1544
  170SOL    HW2 1952   4.177   7.120   7.313 -2.4163 -0.8678  0.2673
  171SOL     OW 1953   1.862   5.181   2.918 -0.2049 -0.3040 -0.6522
  171SOL    HW1 1954   1.860   5.104   2.974 -1.6942 -0.4500 -0.8822
  171SOL    HW2 1955   1.888   5.252   2.977 -2.2525 -0.3532  0.3780
  172SOL     OW 1956   1.456   1.842   8.362  0.6757  0.2287 -0.2833
  172SOL    HW1 1957   1.394   1.780   8.400  0.0965 -0.3857 -2.0874
  172SOL    HW2 1958   1.531   1.789   8.336  1.4597  0.7807  0.8139
  173SOL     OW 1959   6.171   2.846   0.049  0.4226 -0.0985  0.5092
  173SOL    HW1 1960   6.080   2.871   0.031  0.3297 -0.2893  0.7062
  173SOL    HW2 1961   6.168   2.751   0.059  0.5347 -0.0353  1.1678
  174SOL     OW 1962   0.617   3.020   3.779  0.2446 -0.0279 -0.4793
  174SOL    HW1 1963   0.694   2.976   3.741  0.1399  1.6167 -2.8754
  174SOL    HW2 1964   0.654   3.090   3.832  0.3757 -1.0378  0.8107
  175SOL     OW 1965   6.381   1.185   5.680  0.1172 -0.2181 -0.8714
  175SOL    HW1 1966   6.426   1.103   5.664 -0.3584 -0.6724  0.0676
  175SOL    HW2 1967   6.430   1.227   5.751 -0.8507 -0.6640  0.0774
  176SOL     OW 1968   6.312   4.573  10.018  0.1706 -0.2762  0.0691
  176SOL    HW1 1969   6.257   4.545   9.945 -1.9761  0.9214  1.1325
  176SOL    HW2 1970   6.347   4.491  10.054 -0.4929 -1.0357 -0.9607
  177SOL     OW 1971   4.083   7.477   5.565  0.7242 -0.0107 -0.3639
  177SOL    HW1 1972   4.066   7.430   5.647  0.5527 -0.0675 -0.4310
  177SOL    HW2 1973   4.155   7.536   5.586  1.1780 -0.5524 -0.3736
  178SOL     OW 1974   3.457   3.480  11.801  1.1839  0.1806 -0.1914
  178SOL    HW1 1975   3.367   3.506  11.821  1.6564  0.8160  1.2084
  178SOL    HW2 1976   3.448   3.423  11.725 -0.3639  0.5371 -0.3260
  179SOL     OW 1977   7.028   4.969   3.026 -0.1773 -0.1596  0.6493
  179SOL    HW1 1978   7.107   4.946   3.074  0.8799 -2.3998 -1.9214
  179SOL    HW2 1979   7.045   5.058   2.994  0.3885  0.1689  1.8029
  180SOL     OW 1980   2.573   3.601   1.560  0.3511 -0.2729  0.4002
  180SOL    HW1 1981   2.559   3.644   1.475 -1.8493  0.4311  1.0730
  180SOL    HW2 1982   2.488   3.603   1.603  1.2850 -1.1369  2.4150
  181SOL     OW 1983   0.373   6.818   8.631  0.6924  0.0315 -0.2250
  181SOL    HW1 1984   0.300   6.797   8.688  1.6709 -0.4064  0.9189
  181SOL    HW2 1985   0.334   6.860   8.555 -0.9348 -1.9165 -0.5514
  182SOL     OW 1986   2.281   1.079   8.932 -0.2939 -0.4754 -0.7097
  182SOL    HW1 1987   2.228   1.034   8.997 -1.7244 -0.3188 -1.7105
  182SOL    HW2 1988   2.234   1.161   8.915  1.9162  1.1723  0.6087
  183SOL     OW 1989   7.460   5.488   1.511 -0.0938  0.1560 -0.2081
  183SOL    HW1 1990   7.505   5.556   1.561 -0.6394 -0.0091  0.5336
  183SOL    HW2 1991   7.381   5.531   1.478  0.4859  0.3918 -1.3412
  184SOL     OW 1992   3.743   1.996  11.808  0.3282  0.4232 -0.0874
  184SOL    HW1 1993   3.785   1.931  11.751  0.6979  2.0827 -1.8215
  184SOL    HW2 1994   3.735   1.952  11.893  0.4298 -1.9156 -1.2024
  185SOL     OW 1995   0.265   2.992   4.469 -0.3606 -0.5272  0.7398
  185SOL    HW1 1996   0.285   3.047   4.394  0.7805 -1.7873  0.0743
  185SOL    HW2 1997   0.170   2.982   4.467 -0.1918 -2.4213 -1.9666
  186SOL     OW 1998   3.769   2.283  11.543  0.1560  0.0169 -0.6812
  186SOL    HW1 1999   3.761   2.365  11.493 -0.5078  0.2717 -0.1682
  186SOL    HW2 2000   3.862   2.261  11.537  0.2460  0.5138 -1.2819
  187SOL     OW 2001   0.880   4.187   9.471  0.1954 -0.5235 -0.2082
  187SOL    HW1 2002   0.872   4.153   9.382 -0.9710  1.8726 -1.0956
  187SOL    HW2 2003   0.794   4.175   9.510 -0.2222  1.2822 -0.5214
  188SOL     OW 2004   0.083   4.422   2.698  0.5600 -0.1967 -0.0151
  188SOL    HW1 2005   0.159   4.382   2.655  0.1996 -1.6708  0.6581
  188SOL    HW2 2006   0.007   4.385   2.651  0.2385  1.3473 -0.7608
  189SOL     OW 2007   6.113   4.127  11.545  0.6577 -0.1281 -0.1490
  189SOL    HW1 2008   6.038   4.080  11.509 -0.3800  2.2059 -1.2096
  189SOL    HW2 2009   6.180   4.123  11.477  0.4185  0.2434 -0.4112
  190SOL     OW 2010   4.203   7.539   2.160  0.6504  0.2582 -0.0034
  190SOL    HW1 2011   4.223   7.460   2.210  1.1302  0.9258  0.8916
  190SOL    HW2 2012   4.192   7.608   2.226  0.6999  1.0383 -0.7825
  191SOL     OW 2013   2.879   6.897  11.048  0.2246  0.1382 -0.0856
  191SOL    HW1 2014   2.951   6.931  10.994 -0.5704  1.9103 -0.1090
  191SOL    HW2 2015   2.854   6.815  11.005  0.4546  0.8680 -1.6803
  192SOL     OW 2016   1.128   2.426  10.517  0.2217 -0.0842  0.0002
  192SOL    HW1 2017   1.113   2.486  10.590  0.0527 -0.1560  0.0261
  192SOL    HW2 2018   1.057   2.362  10.524  1.5679 -1.5126  1.2056
  193SOL     OW 2019   5.250   7.283   9.517 -0.5843 -0.4909  0.0530
  193SOL    HW1 2020   5.326   7.243   9.475 -1.2919 -1.0823 -0.6988
  193SOL    HW2 2021   5.196   7.315   9.445 -0.7252  0.5467  0.6027
  194SOL     OW 2022   6.232   4.854   1.343 -0.7192  0.2720 -0.7005
  194SOL    HW1 2023   6.241   4.860   1.438 -1.0337  0.7344 -0.6937
  194SOL    HW2 2024   6.140   4.832   1.329 -0.3997 -1.0003 -0.8671
  195SOL     OW 2025   1.100   0.044  10.134 -0.6396  0.2332 -0.2044
  195SOL    HW1 2026   1.082  -0.018  10.063  1.3057 -2.0863  1.1773
  195SOL    HW2 2027   1.017   0.052  10.180 -1.6532  0.9377 -2.0379
  196SOL     OW 2028   3.051   7.328   2.827 -0.2339  0.1075 -0.7482
  196SOL    HW1 2029   2.960   7.357   2.826 -0.9489 -1.9088 -0.0067
  196SOL    HW2 2030   3.096   7.388   2.887 -1.2795  0.5400 -0.3837
  197SOL     OW 2031   3.484   4.357  11.528 -0.1399 -0.0218  0.4961
  197SOL    HW1 2032   3.569   4.351  11.573  0.6518 -0.5438 -0.9902
  197SOL    HW2 2033   3.443   4.435  11.565  1.0467  0.3278  1.1416
  198SOL     OW 2034   4.722   1.682   1.976 -0.6846 -0.7722  0.7437
  198SOL    HW1 2035   4.677   1.654   1.896 -1.2861  1.7677  0.1110
  198SOL    HW2 2036   4.653   1.689   2.041 -0.4161 -1.4456  1.1133
  199SOL     OW 2037   2.852   4.704  10.676 -0.2632 -0.1184  0.0312
  199SOL    HW1 2038   2.899   4.723  10.594 -0.4175 -0.2940 -0.0995
  199SOL    HW2 2039   2.914   4.652  10.727 -0.2918 -0.2991 -0.1164
  200SOL     OW 2040   4.288   7.931   8.070  0.1041  0.3348  0.0885
  200SOL    HW1 2041   4.219   7.929   8.004  0.8098 -1.4939 -0.6583
  200SOL    HW2 2042   4.353   7.867   8.040  1.2757  0.6872  1.6836
  201SOL     OW 2043   5.067   0.352   3.353 -0.4328  0.7976  0.7559
  201SOL    HW1 2044   4.988   0.404   3.335 -0.2135  1.0268  0.4402
  201SOL    HW2 2045   5.111   0.346   3.268 -1.3100 -1.3471  0.3769
  202SOL     OW 2046   7.644   5.717   7.590 -0.2371 -0.4448 -0.0873
  202SOL    HW1 2047   7.622   5.772   7.665  0.0383 -0.1588 -0.2157
  202SOL    HW2 2048   7.561   5.707   7.543 -0.1075  0.6481 -0.5823
  203SOL     OW 2049   2.347   4.792   0.116  0.5457  0.3643 -0.1344
  203SOL    HW1 2050   2.300   4.744   0.184  0.7479 -0.0707 -0.2932
  203SOL    HW2 2051   2.281   4.849   0.077  0.4902  0.8121  0.5960
  204SOL     OW 2052   4.148   6.232   9.004 -0.0791  0.1130  0.4817
  204SOL    HW1 2053   4.150   6.325   9.023 -1.6531 -0.0278  1.5897
  204SOL    HW2 2054   4.226   6.196   9.046 -0.1228  0.7565  1.1157
  205SOL     OW 2055   5.632   7.589  11.886 -0.0190 -0.0911 -0.4932
  205SOL    HW1 2056   5.705   7.533  11.858 -0.8548 -1.7183  0.4459
  205SOL    HW2 2057   5.664   7.678  11.872  2.3442 -0.7264  0.3251
  206SOL     OW 2058   2.786   1.333   5.618  0.5492 -0.2732  0.3641
  206SOL    HW1 2059   2.778   1.251   5.568  1.2713 -0.7960  1.0817
  206SOL    HW2 2060   2.776   1.402   5.552 -0.2366 -0.9334 -0.2264
  207SOL     OW 2061   0.506   6.861   7.906  0.3580 -0.3542  0.0431
  207SOL    HW1 2062   0.425   6.825   7.942  0.3646 -1.6312 -1.1284
  207SOL    HW2 2063   0.575   6.818   7.956  0.3309 -0.9438 -0.4031
  208SOL     OW 2064   6.594   1.845   5.124 -0.3968  0.2973 -0.1388
  208SOL    HW1 2065   6.508   1.886   5.129 -0.3809  0.3668 -0.4105
  208SOL    HW2 2066   6.647   1.906   5.071 -0.7653 -0.7305 -1.7730
  209SOL     OW 2067   3.007   5.052   8.535 -0.1645 -0.7368  0.3332
  209SOL    HW1 2068   2.966   5.083   8.616 -0.0825 -2.2777  1.0110
  209SOL    HW2 2069   3.097   5.030   8.561 -0.1766 -1.3747 -0.1333
  210SOL     OW 2070   1.834   6.756   5.415 -0.3539 -0.4160 -0.1428
  210SOL    HW1 2071   1.827   6.845   5.448  0.2643 -1.4814  3.2157
  210SOL    HW2 2072   1.927   6.744   5.396 -0.2458 -0.6986  0.5521
  211SOL     OW 2073   7.535   4.465   8.667 -0.2372  0.2025  0.4878
  211SOL    HW1 2074   7.439   4.459   8.668 -0.6529  3.9555 -0.6717
  211SOL    HW2 2075   7.558   4.490   8.756 -0.6261  1.5305  0.2348
  212SOL     OW 2076   2.943   7.080  11.866 -0.0616  0.5866  0.0947
  212SOL    HW1 2077   2.981   7.047  11.948  0.0286  0.0460 -0.1620
  212SOL    HW2 2078   2.926   7.001  11.814 -0.7322  0.8860 -0.1443
  213SOL     OW 2079   3.742   0.900   0.980 -0.4293  0.2267 -0.5311
  213SOL    HW1 2080   3.694   0.867   1.055 -0.2765  0.5079 -0.3084
  213SOL    HW2 2081   3.831   0.915   1.013  0.3637 -2.1415 -1.4040
  214SOL     OW 2082   1.241   2.716   2.248 -0.2238 -0.6067  0.1537
  214SOL    HW1 2083   1.223   2.676   2.333 -1.4358 -0.1673  0.1299
  214SOL    HW2 2084   1.320   2.673   2.217 -0.4486 -1.6344  0.9639
  215SOL     OW 2085   3.637   0.124   1.530  0.2227 -0.3870 -0.0873
  215SOL    HW1 2086   3.623   0.219   1.526 -1.1668 -0.5772 -0.0008
  215SOL    HW2 2087   3.722   0.114   1.574  1.7827  0.8884 -2.5620
  216SOL     OW 2088   7.839   4.769   1.185  0.6814  0.0269  0.2695
  216SOL    HW1 2089   7.798   4.767   1.098  2.3952  0.5747 -0.5976
  216SOL    HW2 2090   7.894   4.691   1.188  1.4483  0.5618  0.4228
  217SOL     OW 2091   2.868   6.973   9.519 -0.0883  0.6161 -0.1370
  217SOL    HW1 2092   2.882   6.882   9.545 -1.0657  0.1764 -1.0832
  217SOL    HW2 2093   2.907   6.980   9.432  0.1326  1.1541 -0.0015
  218SOL     OW 2094   3.932   3.626  10.395 -0.4587  0.1279  0.0751
  218SOL    HW1 2095   3.954   3.674  10.315 -1.2135  0.9433  0.3482
  218SOL    HW2 2096   4.017   3.611  10.438 -0.1961  1.1304 -0.0731
  219SOL     OW 2097   5.824   3.303   8.889 -0.3897  0.4161 -0.4501
  219SOL    HW1 2098   5.851   3.288   8.979 -1.0936  0.8626 -0.1613
  219SOL    HW2 2099   5.743   3.353   8.896  0.9789  2.9077 -1.3369
  220SOL     OW 2100   1.757   1.065  10.488  0.0612  0.2457 -0.1962
  220SOL    HW1 2101   1.675   1.051  10.441  0.5025  0.4655 -1.0398
  220SOL    HW2 2102   1.731   1.066  10.581 -0.8362 -0.0191 -0.4310
  221SOL     OW 2103   1.340   4.412   9.640 -0.0448 -0.1238  0.5598
  221SOL    HW1 2104   1.329   4.503   9.667  2.6804  0.1958  0.8704
  221SOL    HW2 2105   1.361   4.365   9.721 -0.9125 -0.9496  0.3220
  222SOL     OW 2106   3.573   0.411   0.786  0.7056 -0.6094  0.2734
  222SOL    HW1 2107   3.551   0.439   0.875  0.7087 -0.7612  0.3218
  222SOL    HW2 2108   3.666   0.431   0.776  0.7767 -0.8706  0.4091
  223SOL     OW 2109   4.669   6.028   2.718  0.2412 -0.6821 -0.4845
  223SOL    HW1 2110   4.629   6.096   2.773  1.6911  0.6568 -1.0138
  223SOL    HW2 2111   4.721   5.976   2.779  1.7529  0.7276 -0.5028
  224SOL     OW 2112   0.105   2.553   1.398 -0.1739 -0.4265 -0.1331
  224SOL    HW1 2113   0.052   2.577   1.321 -0.3376  0.5449  0.2681
  224SOL    HW2 2114   0.040   2.531   1.465 -0.2719  2.9949  1.1110
  225SOL     OW 2115   1.688   6.101   9.235 -0.3139  0.2315 -0.1536
  225SOL    HW1 2116   1.722   6.045   9.304 -0.3252 -0.5507 -0.7682
  225SOL    HW2 2117   1.763   6.116   9.177 -0.8566 -1.0957 -1.2466
  226SOL     OW 2118   7.021   3.200   4.975  0.0449 -0.1933  0.4013
  226SOL    HW1 2119   7.015   3.167   4.886  0.3605 -0.5721  0.5173
  226SOL    HW2 2120   6.942   3.253   4.987 -1.5119 -2.4802  0.8654
  227SOL     OW 2121   6.205   0.183  11.067  0.5545  0.0061 -0.1595
  227SOL    HW1 2122   6.207   0.245  11.140  1.9400 -1.7470  1.4092
  227SOL    HW2 2123   6.139   0.118  11.093  2.1538 -1.4928  0.3833
  228SOL     OW 2124   5.204   0.047  11.064  0.6449 -0.5835  0.1907
  228SOL    HW1 2125   5.287   0.044  11.016  1.6585  0.6499  1.7883
  228SOL    HW2 2126   5.229   0.065  11.154 -1.3257 -1.1376  0.8933
  229SOL     OW 2127   1.743   4.404  12.428 -0.2829 -0.0179 -0.2543
  229SOL    HW1 2128   1.761   4.498  12.429  0.1764 -0.1110  0.1608
  229SOL    HW2 2129   1.647   4.399  12.429 -0.3071  0.4362  0.6158
  230SOL     OW 2130   3.057   5.012  10.257  0.5538  0.0174 -0.4987
  230SOL    HW1 2131   3.108   5.091  10.242  0.5083 -0.0466 -1.0126
  230SOL    HW2 2132   3.059   4.999  10.351 -2.0352  2.3720  0.0182
  231SOL     OW 2133   5.517   7.370   5.951  0.0931  0.8487  0.3452
  231SOL    HW1 2134   5.477   7.405   6.030 -2.3857 -1.0852  0.0640
  231SOL    HW2 2135   5.470   7.411   5.879 -1.9433 -1.7872  0.0120
  232SOL     OW 2136   1.703   6.247   1.280 -0.7074 -0.0356 -0.3117
  232SOL    HW1 2137   1.779   6.195   1.306 -0.7826 -0.5596 -1.0991
  232SOL    HW2 2138   1.629   6.204   1.322 -0.5721  0.4523  0.4253
  233SOL     OW 2139   3.257   2.964   9.307 -0.2266 -0.2127 -0.0032
  233SOL    HW1 2140   3.180   3.020   9.295 -0.7053 -0.6926  0.7507
  233SOL    HW2 2141   3.267   2.958   9.402  2.3616  2.0338 -0.0154
  234SOL     OW 2142   7.240   4.734   0.116 -0.3228 -0.0095 -0.0103
  234SOL    HW1 2143   7.204   4.821   0.098 -1.4972 -0.7152 -1.2733
  234SOL    HW2 2144   7.290   4.711   0.038  0.7351 -0.1282  0.6778
  235SOL     OW 2145   0.245   6.439   0.382  0.0236 -0.0804  0.2150
  235SOL    HW1 2146   0.312   6.493   0.423 -0.3140  0.3230  0.2363
  235SOL    HW2 2147   0.264   6.443   0.288  0.0468  0.0047  0.2239
  236SOL     OW 2148   0.519   5.220   2.730  0.2236 -0.3118 -0.3366
  236SOL    HW1 2149   0.472   5.224   2.814  0.3590  1.0486 -0.3013
  236SOL    HW2 2150   0.551   5.130   2.725  0.4182 -0.3653  1.2044
  237SOL     OW 2151   1.903   0.732   6.868  0.3628  0.2973 -0.4385
  237SOL    HW1 2152   1.947   0.650   6.891  1.4029  0.4476 -1.7599
  237SOL    HW2 2153   1.886   0.725   6.774  0.1212  1.4455 -0.5018
  238SOL     OW 2154   2.851   7.655   7.841 -0.8983 -0.7704 -0.1569
  238SOL    HW1 2155   2.767   7.643   7.796 -1.6794 -1.3357  1.3876
  238SOL    HW2 2156   2.885   7.566   7.852  0.6685 -0.4949 -2.0395
  239SOL     OW 2157   7.030   6.547   1.765  0.7497  0.0895  0.3965
  239SOL    HW1 2158   7.104   6.607   1.761  2.5073 -1.7680  2.5930
  239SOL    HW2 2159   7.068   6.460   1.749 -1.7072 -0.5865 -2.8826
  240SOL     OW 2160   6.637   3.440  10.193  0.4474  0.3057  0.3780
  240SOL    HW1 2161   6.611   3.423  10.283 -1.6237  1.5498  0.0788
  240SOL    HW2 2162   6.716   3.387  10.180 -0.1478 -1.1863  2.3908
  241SOL     OW 2163   3.022   6.659   6.015  0.1520 -0.1441  0.2896
  241SOL    HW1 2164   2.929   6.658   6.037  0.2360  0.1320  0.6584
  241SOL    HW2 2165   3.024   6.661   5.919 -0.2231  0.7421  0.2954
  242SOL     OW 2166   1.080   1.849  10.005 -0.2398  0.5418 -0.2160
  242SOL    HW1 2167   1.032   1.839  10.087 -0.6429 -0.0452 -0.5206
  242SOL    HW2 2168   1.160   1.800  10.017 -1.6712 -2.2700 -1.2683
  243SOL     OW 2169   7.301   6.624   9.375  0.7816 -0.2185  0.1409
  243SOL    HW1 2170   7.239   6.674   9.429  0.4683  0.5707 -0.9217
  243SOL    HW2 2171   7.382   6.675   9.378 -0.1542  1.6896 -2.7511
  244SOL     OW 2172   3.719   7.172   9.205 -0.1868 -0.0216  0.2367
  244SOL    HW1 2173   3.638   7.191   9.158 -0.0399 -1.9872 -0.9563
  244SOL    HW2 2174   3.783   7.232   9.168 -0.2825 -0.9321 -1.5671
  245SOL     OW 2175   6.486   7.721   3.478  0.4950  0.0185 -0.0944
  245SOL    HW1 2176   6.420   7.785   3.451 -0.9835 -1.3842  0.0238
  245SOL    HW2 2177   6.505   7.672   3.398  0.0099 -0.7542  0.2494
  246SOL     OW 2178   1.138   2.078   2.213  1.0916  0.1667  0.1019
  246SOL    HW1 2179   1.046   2.093   2.192  1.0379  1.1264  0.8983
  246SOL    HW2 2180   1.171   2.165   2.236  1.9710 -0.3029  0.6604
  247SOL     OW 2181   5.060   5.741   7.384  0.5767 -0.0028  0.0739
  247SOL    HW1 2182   4.972   5.742   7.422  1.2842 -0.0651  1.7594
  247SOL    HW2 2183   5.076   5.832   7.359  0.6336  0.3020  1.1961
  248SOL     OW 2184   2.940   4.977   9.443 -0.1791  0.0013  0.8778
  248SOL    HW1 2185   2.978   4.919   9.377  0.0783  0.3488  0.7135
  248SOL    HW2 2186   2.888   4.920   9.499 -0.6017 -0.2694  0.2306
  249SOL     OW 2187   4.221   0.222   3.180  0.3861 -0.2501 -0.0330
  249SOL    HW1 2188   4.137   0.196   3.217 -0.0114  0.9765 -0.0546
  249SOL    HW2 2189   4.243   0.151   3.119  0.5423 -1.7851  1.7115
  250SOL     OW 2190   3.734   7.261   2.715 -0.2778 -0.5547  0.1689
  250SOL    HW1 2191   3.744   7.321   2.789 -0.2174  0.7017 -0.8482
  250SOL    HW2 2192   3.762   7.310   2.639 -3.6165 -0.5692 -1.2590
  251SOL     OW 2193   4.934   6.991   8.493  0.3785  0.3138 -0.2997
  251SOL    HW1 2194   4.899   7.077   8.515 -1.9597  0.2009 -3.0132
  251SOL    HW2 2195   5.002   7.008   8.428 -0.6071  0.1537 -1.4142
  252SOL     OW 2196   5.969   1.108   0.879  0.1781  0.1675 -0.1943
  252SOL    HW1 2197   5.915   1.182   0.849  0.0080  0.5636  1.0521
  252SOL    HW2 2198   6.044   1.109   0.819 -0.3407  0.6845 -0.8644
  253SOL     OW 2199   3.249   7.368  10.414 -0.0056 -0.6383 -0.3911
  253SOL    HW1 2200   3.269   7.285  10.370 -1.6692 -0.9501 -0.6155
  253SOL    HW2 2201   3.183   7.409  10.359  0.4179  0.6146  0.0029
  254SOL     OW 2202   7.528   1.946   2.152  0.0069 -0.0355  0.0935
  254SOL    HW1 2203   7.611   1.925   2.193 -0.6550  0.6309  1.8470
  254SOL    HW2 2204   7.534   2.039   2.130  0.2831 -0.3360 -1.2367
  255SOL     OW 2205   4.926   7.830   7.183  0.1005 -0.2850  0.7122
  255SOL    HW1 2206   4.936   7.775   7.260  2.0094  1.2056  1.6369
  255SOL    HW2 2207   4.950   7.773   7.110  1.7202 -0.8184  1.6069
  256SOL     OW 2208   3.375   5.063   1.765 -0.0058 -0.1825  0.0659
  256SOL    HW1 2209   3.425   5.119   1.823  1.6963 -0.0230 -1.4436
  256SOL    HW2 2210   3.302   5.031   1.818  1.4841 -0.1087  2.2652
  257SOL     OW 2211   7.869   2.281   7.185  0.1130  0.3008 -0.2168
  257SOL    HW1 2212   7.828   2.228   7.253 -0.3299  1.0671  0.1291
  257SOL    HW2 2213   7.858   2.230   7.105  0.7488 -0.6709  0.2887
  258SOL     OW 2214   3.301   6.443   3.185 -0.0161  0.1044  0.4597
  258SOL    HW1 2215   3.295   6.373   3.250  1.0677  0.7325  1.2695
  258SOL    HW2 2216   3.386   6.429   3.143 -0.8146 -0.4612 -1.0611
  259SOL     OW 2217   4.982   0.018   4.127  0.1017  0.0687  0.3742
  259SOL    HW1 2218   4.992   0.109   4.157  0.4849  1.2133 -2.8160
  259SOL    HW2 2219   4.888   0.008   4.112  0.2056  0.5485 -0.7603
  260SOL     OW 2220   1.621   2.031   3.726 -0.0409 -0.5800  0.1797
  260SOL    HW1 2221   1.716   2.027   3.742  0.1344 -0.1633 -0.7073
  260SOL    HW2 2222   1.585   2.067   3.807  0.5622 -0.7244  0.5191
  261SOL     OW 2223   0.126   6.100   4.892  0.3074  0.1544  0.2858
  261SOL    HW1 2224   0.183   6.093   4.815  1.6376 -0.6332  1.2915
  261SOL    HW2 2225   0.181   6.070   4.964 -0.9972  0.6306  1.5055
  262SOL     OW 2226   0.263   3.797  10.686 -0.1226 -0.0285 -1.0801
  262SOL    HW1 2227   0.227   3.833  10.604 -1.3530 -0.7108 -0.8658
  262SOL    HW2 2228   0.186   3.769  10.735  0.6530 -0.3224 -0.0051
  263SOL     OW 2229   6.917   1.156   5.557  0.0055  0.1526  0.0791
  263SOL    HW1 2230   6.896   1.066   5.581  0.6229 -0.1765 -0.6043
  263SOL    HW2 2231   6.834   1.194   5.532  0.0174 -0.8146 -1.5454
  264SOL     OW 2232   4.375   6.065   3.342  0.0361  0.1120 -0.0851
  264SOL    HW1 2233   4.404   5.977   3.317 -0.7475  0.1805 -1.3033
  264SOL    HW2 2234   4.313   6.090   3.274 -0.4917  1.2276  0.7813
  265SOL     OW 2235   5.850   4.771   3.312  0.1551  0.6809 -0.2198
  265SOL    HW1 2236   5.923   4.725   3.270 -1.1408 -1.0546 -0.6937
  265SOL    HW2 2237   5.835   4.722   3.393 -0.3187  1.1814  0.0003
  266SOL     OW 2238   2.810   0.108   0.342  0.0767  0.2780 -0.3211
  266SOL    HW1 2239   2.836   0.121   0.433 -0.8230  0.6178 -0.0999
  266SOL    HW2 2240   2.783   0.195   0.313  0.2023  0.1374 -0.8615
  267SOL     OW 2241   5.401   7.082   1.023 -0.0658 -0.3055  0.6679
  267SOL    HW1 2242   5.399   7.096   1.118 -1.5552 -0.9913  0.7815
  267SOL    HW2 2243   5.316   7.116   0.992  0.8992  1.0428 -0.6216
  268SOL     OW 2244   3.917   6.572   7.660 -0.4865  0.0461 -0.7205
  268SOL    HW1 2245   3.894   6.559   7.568  0.8629 -2.3499 -0.8167
  268SOL    HW2 2246   3.971   6.652   7.660 -0.8111  0.2855 -1.9424
  269SOL     OW 2247   2.608   7.282   2.692 -0.2217  0.1442  0.8690
  269SOL    HW1 2248   2.532   7.329   2.655  0.5810  0.3869 -0.5578
  269SOL    HW2 2249   2.579   7.191   2.699 -0.8030  0.3189  0.8121
  270SOL     OW 2250   3.868   2.139  12.231 -0.3533 -0.2071  0.5060
  270SOL    HW1 2251   3.928   2.171  12.164  0.3434  1.3646  1.8129
  270SOL    HW2 2252   3.872   2.043  12.222  2.6661 -0.2068  0.7545
  271SOL     OW 2253   6.318   4.045   1.905 -0.1099 -0.3151  0.6325
  271SOL    HW1 2254   6.307   4.115   1.969  1.2206  1.5246 -1.0255
  271SOL    HW2 2255   6.387   3.989   1.941 -0.0960  0.1059  1.2671
  272SOL     OW 2256   0.657   6.815   3.146 -0.3388  0.1598 -0.4172
  272SOL    HW1 2257   0.567   6.817   3.179 -0.2018 -0.6915  0.0369
  272SOL    HW2 2258   0.701   6.886   3.192 -0.8368  0.7498 -0.8337
  273SOL     OW 2259   3.423   5.697  10.296  0.1850 -0.1460  0.4571
  273SOL    HW1 2260   3.370   5.710  10.375 -2.0841 -0.4069 -0.9092
  273SOL    HW2 2261   3.459   5.783  10.276  1.4534 -0.2327  2.1558
  274SOL     OW 2262   0.612   4.101   2.341 -0.5503  0.5859 -0.4270
  274SOL    HW1 2263   0.579   4.059   2.261  0.3296 -0.9238 -0.0276
  274SOL    HW2 2264   0.536   4.147   2.377 -1.3457 -0.0122 -1.3012
  275SOL     OW 2265   3.650   1.089   5.386  0.2664  0.2396  0.1714
  275SOL    HW1 2266   3.586   1.018   5.385  0.4543  0.0440  1.1294
  275SOL    HW2 2267   3.616   1.151   5.451  0.4180  0.7313 -0.2109
  276SOL     OW 2268   3.312   4.991   6.734 -0.2216 -0.4855  0.0796
  276SOL    HW1 2269   3.306   4.905   6.692 -1.1826 -0.6757  0.5739
  276SOL    HW2 2270   3.222   5.011   6.760  0.1228  0.3074  0.6915
  277SOL     OW 2271   6.003   3.686   9.503 -0.2698 -0.3312  0.6344
  277SOL    HW1 2272   6.050   3.707   9.584  2.6633 -3.0189 -0.1210
  277SOL    HW2 2273   6.066   3.707   9.433 -1.1089 -1.8293 -0.6349
  278SOL     OW 2274   7.492   3.921   5.905 -0.0502  1.0526  0.7170
  278SOL    HW1 2275   7.549   3.901   5.978 -0.8165 -0.5184  0.9206
  278SOL    HW2 2276   7.529   3.874   5.830 -0.1407  1.4020  0.4433
  279SOL     OW 2277   5.470   3.426   9.838  0.1268  0.5093  0.1074
  279SOL    HW1 2278   5.478   3.429   9.933 -1.1657 -1.0757  0.3133
  279SOL    HW2 2279   5.528   3.355   9.811  0.6338  1.0780 -0.3198
  280SOL     OW 2280   3.836   2.989   0.510 -0.6873  0.4194 -0.2012
  280SOL    HW1 2281   3.897   2.964   0.580  0.4521  1.2042 -0.8834
  280SOL    HW2 2282   3.812   3.080   0.531 -0.7750  0.4758 -0.5447
  281SOL     OW 2283   3.765   7.734  11.656 -0.3527 -0.0962 -0.2784
  281SOL    HW1 2284   3.803   7.668  11.713  1.2890  0.8459 -0.2272
  281SOL    HW2 2285   3.747   7.809  11.714 -3.9871 -1.0267  0.0776
  282SOL     OW 2286   2.272   4.603   5.922 -0.0509 -0.1530  0.1457
  282SOL    HW1 2287   2.253   4.693   5.897  0.3662 -0.2292 -0.4479
  282SOL    HW2 2288   2.290   4.558   5.840  2.0269 -0.2479  0.5974
  283SOL     OW 2289   3.822   2.752   8.259 -0.4360  0.5364  0.0738
  283SOL    HW1 2290   3.744   2.762   8.204 -1.0414 -0.2925  0.7617
  283SOL    HW2 2291   3.878   2.826   8.234 -1.9685  1.8959  0.4377
  284SOL     OW 2292   1.761   2.799  10.589 -0.0227  0.0369  0.1849
  284SOL    HW1 2293   1.809   2.870  10.546 -0.7369 -0.7505 -2.0715
  284SOL    HW2 2294   1.684   2.786  10.534 -0.4132 -1.8403  1.0949
  285SOL     OW 2295   2.829   5.774  10.152 -0.2660 -0.4116 -0.0816
  285SOL    HW1 2296   2.755   5.744  10.205  0.5358 -0.8964  0.7986
  285SOL    HW2 2297   2.874   5.693  10.126 -0.8632 -0.2247 -1.8843
  286SOL     OW 2298   4.444   6.468   8.785  0.2186 -0.1142 -0.3404
  286SOL    HW1 2299   4.382   6.537   8.761 -0.0271 -0.1368  0.2292
  286SOL    HW2 2300   4.505   6.465   8.711  0.9419  1.5181  0.1356
  287SOL     OW 2301   0.311   7.873   3.495  0.5475 -0.1434  0.2766
  287SOL    HW1 2302   0.340   7.823   3.419  2.0938 -0.5835  1.1225
  287SOL    HW2 2303   0.364   7.953   3.492  0.9313 -0.3625  1.1310
  288SOL     OW 2304   0.101   3.612  11.743 -0.0497 -0.4114  0.2770
  288SOL    HW1 2305   0.061   3.552  11.681 -1.5952  0.2724  0.5777
  288SOL    HW2 2306   0.182   3.567  11.771 -0.0406 -1.3273 -1.1508
  289SOL     OW 2307   4.172   2.272  11.108  0.3297 -0.5953  0.0205
  289SOL    HW1 2308   4.097   2.215  11.094  0.5730 -1.1463  0.8965
  289SOL    HW2 2309   4.226   2.260  11.029  0.2869 -1.4425  0.1124
  290SOL     OW 2310   5.506   7.161   6.279  0.0002  0.2423  0.0898
  290SOL    HW1 2311   5.417   7.189   6.261  0.7822  1.7565 -1.7383
  290SOL    HW2 2312   5.559   7.239   6.266  1.8135 -1.0797 -0.9090
  291SOL     OW 2313   1.389   7.299   1.321  0.0551 -0.3378 -0.0716
  291SOL    HW1 2314   1.470   7.281   1.272  0.4431  1.2449 -0.0824
  291SOL    HW2 2315   1.338   7.219   1.313  0.9764 -0.8424 -1.3543
  292SOL     OW 2316   3.371   5.004   2.849  0.1998 -0.4025 -0.6766
  292SOL    HW1 2317   3.417   5.088   2.854  0.4539 -0.6152  1.0536
  292SOL    HW2 2318   3.331   5.004   2.761  0.9961  1.0885 -1.0742
  293SOL     OW 2319   5.252   2.144   0.195  0.2334  0.2730 -0.8254
  293SOL    HW1 2320   5.288   2.108   0.114  0.9775 -0.9531  0.0102
  293SOL    HW2 2321   5.181   2.084   0.218  1.0731 -0.3407  0.2537
  294SOL     OW 2322   1.957   0.588   0.538  0.1153  0.2139 -0.0107
  294SOL    HW1 2323   1.895   0.660   0.544 -1.3716 -0.8153 -2.0485
  294SOL    HW2 2324   2.042   0.631   0.526 -0.7119  1.6605 -1.0753
  295SOL     OW 2325   1.638   7.007   6.500 -0.3666 -0.1475 -0.2477
  295SOL    HW1 2326   1.667   7.063   6.572  1.3919  0.6855 -1.5216
  295SOL    HW2 2327   1.550   6.980   6.524  0.0149  0.4057  2.0226
  296SOL     OW 2328   1.988   5.520   0.661  0.3038 -0.2772  0.1898
  296SOL    HW1 2329   1.920   5.588   0.661 -0.9374 -1.4622 -1.0604
  296SOL    HW2 2330   1.948   5.446   0.706  0.8802 -0.9040 -0.3133
  297SOL     OW 2331   6.138   2.927   1.295 -0.0241  0.0804 -0.4055
  297SOL    HW1 2332   6.117   2.899   1.206 -0.9325 -1.0722  0.1417
  297SOL    HW2 2333   6.197   2.859   1.328  0.3917  0.5567 -0.1573
  298SOL     OW 2334   5.733   4.248   0.038  0.5442  0.1389 -0.5104
  298SOL    HW1 2335   5.825   4.276   0.035  0.1199  1.9243  1.1160
  298SOL    HW2 2336   5.730   4.169  -0.015  3.0393 -0.0117 -0.5288
  299SOL     OW 2337   0.771   2.626   7.498 -0.3039  0.5295  0.3913
  299SOL    HW1 2338   0.739   2.543   7.461  0.5744 -0.3642  1.6033
  299SOL    HW2 2339   0.802   2.675   7.421  1.2554 -1.1830 -0.1550
  300SOL     OW 2340   1.788   1.366   4.240  0.0689 -0.0500 -0.1813
  300SOL    HW1 2341   1.742   1.450   4.241 -0.6456 -0.3159 -2.8367
  300SOL    HW2 2342   1.854   1.376   4.171  0.2061 -1.5586 -0.3056
  301SOL     OW 2343   6.242   1.071   5.286 -0.2244 -0.2569 -0.3520
  301SOL    HW1 2344   6.243   1.005   5.356  1.9200 -0.8492 -0.8638
  301SOL    HW2 2345   6.265   1.153   5.330 -2.8833  0.2390  0.2845
  302SOL     OW 2346   1.201   0.484   2.792  0.3244  0.6149  0.6422
  302SOL    HW1 2347   1.297   0.474   2.791  0.2900 -0.3843 -1.8726
  302SOL    HW2 2348   1.170   0.406   2.838  0.6922 -0.6491 -1.1435
  303SOL     OW 2349   7.728   1.090   4.876  0.3548  0.2789  0.3122
  303SOL    HW1 2350   7.642   1.066   4.910  0.0169 -0.0704 -0.7418
  303SOL    HW2 2351   7.781   1.107   4.954 -0.5714  0.1764  0.9815
  304SOL     OW 2352   4.463   7.793   0.568  0.4241 -0.0271 -0.6015
  304SOL    HW1 2353   4.396   7.752   0.622 -0.7308 -0.4943 -2.3101
  304SOL    HW2 2354   4.524   7.722   0.547  0.3145 -0.0767 -0.7507
  305SOL     OW 2355   0.906   1.309   3.840  0.3817 -0.0612 -0.0514
  305SOL    HW1 2356   0.856   1.362   3.778 -0.0405  0.5314  0.7784
  305SOL    HW2 2357   0.901   1.220   3.804  1.8459  0.5556 -1.9361
  306SOL     OW 2358   0.361   6.276   7.713 -0.4580 -0.3903 -0.6213
  306SOL    HW1 2359   0.379   6.349   7.771 -0.5026 -0.3435 -0.6662
  306SOL    HW2 2360   0.281   6.301   7.666 -0.7013 -0.6411 -0.3476
  307SOL     OW 2361   0.681   4.629   7.656 -0.2084  0.2988 -0.2331
  307SOL    HW1 2362   0.616   4.562   7.676 -0.2139  0.3296 -0.1467
  307SOL    HW2 2363   0.748   4.583   7.606  0.6440 -0.1657  1.2784
  308SOL     OW 2364   5.517   2.254   7.988 -0.5715 -0.0478 -0.0183
  308SOL    HW1 2365   5.448   2.285   8.047 -0.3014 -2.0204  1.4200
  308SOL    HW2 2366   5.527   2.161   8.009 -0.9471 -1.0768 -3.7017
  309SOL     OW 2367   5.780   0.198   2.056  0.1147 -0.0911  0.6383
  309SOL    HW1 2368   5.783   0.291   2.076  1.5619 -0.1555  0.7757
  309SOL    HW2 2369   5.769   0.194   1.961 -0.3472  0.2121  0.6764
  310SOL     OW 2370   1.702   7.342   7.227 -0.1539  0.0289 -0.3040
  310SOL    HW1 2371   1.717   7.289   7.306 -0.2279 -1.7100 -1.3941
  310SOL    HW2 2372   1.780   7.329   7.174 -0.8198 -0.2144 -1.2511
  311SOL     OW 2373   6.606   0.670   7.240  0.0055  0.1893 -0.0521
  311SOL    HW1 2374   6.548   0.672   7.163 -2.1619 -0.1479  1.4613
  311SOL    HW2 2375   6.560   0.722   7.306  1.1194 -0.6517  1.4591
  312SOL     OW 2376   2.336   5.138   3.050 -0.1642 -0.3792 -0.3410
  312SOL    HW1 2377   2.377   5.071   3.104 -0.0729 -0.1121 -0.0773
  312SOL    HW2 2378   2.368   5.221   3.086  0.7086 -0.2163 -1.4386
  313SOL     OW 2379   3.522   5.741   7.685 -0.1393  0.0182  0.4270
  313SOL    HW1 2380   3.480   5.675   7.740 -1.9350  0.0422 -0.8430
  313SOL    HW2 2381   3.480   5.823   7.710  1.1370  0.5153  1.0529
  314SOL     OW 2382   0.824   0.299   2.804 -0.2260 -0.0681  0.0168
  314SOL    HW1 2383   0.850   0.303   2.712 -3.0786 -0.3238 -0.9143
  314SOL    HW2 2384   0.819   0.206   2.824  1.4850 -0.0137  0.8289
  315SOL     OW 2385   6.378   1.823   8.611  0.1110 -0.1249  0.3723
  315SOL    HW1 2386   6.350   1.816   8.702  1.0184  1.5204  0.8267
  315SOL    HW2 2387   6.297   1.823   8.561 -0.4296 -0.4658  1.2255
  316SOL     OW 2388   0.087   6.248   3.345  0.4715 -0.3701  0.1749
  316SOL    HW1 2389  -0.007   6.232   3.356  0.2722  0.9990  0.5965
  316SOL    HW2 2390   0.108   6.310   3.415  1.4077  0.3870 -0.7644
  317SOL     OW 2391   6.956   7.664   8.306 -0.2335  0.3750  0.0328
  317SOL    HW1 2392   7.010   7.585   8.311 -2.4904 -1.2363  0.6515
  317SOL    HW2 2393   6.907   7.664   8.389 -2.1387  0.9712 -1.0383
  318SOL     OW 2394   7.634   2.154   2.367 -0.5084  0.0909 -0.5811
  318SOL    HW1 2395   7.708   2.113   2.412  0.5440  1.4584 -0.9987
  318SOL    HW2 2396   7.662   2.244   2.352 -1.8431  0.3497 -1.7207
  319SOL     OW 2397   5.885   7.458   4.516  0.0717  0.1419 -0.0507
  319SOL    HW1 2398   5.871   7.550   4.495 -1.2451  0.1392  0.7271
  319SOL    HW2 2399   5.797   7.422   4.528  0.5685 -1.1776 -0.1441
  320SOL     OW 2400   3.878   4.045   7.343 -0.3582  0.6716 -0.0727
  320SOL    HW1 2401   3.909   4.112   7.404  2.9219 -2.3875  2.0158
  320SOL    HW2 2402   3.930   4.059   7.264 -0.2407  1.0374  0.0665
  321SOL     OW 2403   2.422   4.212   1.819 -0.1479  0.1760 -0.0827
  321SOL    HW1 2404   2.474   4.165   1.754  1.3673  0.6206  0.7725
  321SOL    HW2 2405   2.351   4.251   1.768  1.3385  1.0348 -1.5891
  322SOL     OW 2406   0.284   1.366   1.071 -0.0666 -0.0259 -0.1731
  322SOL    HW1 2407   0.215   1.301   1.086 -0.4742  0.9793  3.1482
  322SOL    HW2 2408   0.236   1.446   1.050  0.2705 -0.0088 -0.8962
  323SOL     OW 2409   0.256   0.410   6.291 -0.0142  0.1541 -0.3598
  323SOL    HW1 2410   0.214   0.455   6.364  0.5732  0.6910 -0.3515
  323SOL    HW2 2411   0.316   0.348   6.332 -1.0948 -0.9422 -0.3619
  324SOL     OW 2412   0.030   0.903   4.476 -0.4257  0.2168  0.2396
  324SOL    HW1 2413  -0.001   0.989   4.450 -2.2101 -0.6329 -0.6703
  324SOL    HW2 2414  -0.017   0.885   4.558  0.2686  0.2702  0.6555
  325SOL     OW 2415   2.520   4.068  10.083  0.1800  0.0580 -0.0134
  325SOL    HW1 2416   2.494   4.158  10.102  0.8020  0.4157 -0.8179
  325SOL    HW2 2417   2.437   4.022  10.069 -0.1537  0.4204  0.7258
  326SOL     OW 2418   2.630   6.929   7.842 -0.0056  0.0181  0.0172
  326SOL    HW1 2419   2.596   7.005   7.891 -0.8897 -0.7643  0.6564
  326SOL    HW2 2420   2.610   6.949   7.750  0.6125  0.9752  0.0763
  327SOL     OW 2421   1.064   0.215   9.685  0.0751  0.0941 -0.3983
  327SOL    HW1 2422   1.079   0.308   9.696 -1.6347  0.2773  0.5834
  327SOL    HW2 2423   1.112   0.192   9.605  2.3690  1.3224  0.5515
  328SOL     OW 2424   2.465   4.671  10.364 -0.3309  0.0249 -0.5414
  328SOL    HW1 2425   2.476   4.661  10.458  1.8149 -0.1145 -0.7694
  328SOL    HW2 2426   2.436   4.762  10.353 -0.7080  0.0085  0.2442
  329SOL     OW 2427   1.879   4.478   4.706  0.3792 -0.3660 -0.0799
  329SOL    HW1 2428   1.787   4.493   4.729  0.9149  1.1867  1.1658
  329SOL    HW2 2429   1.921   4.453   4.789  1.0863 -1.1815 -0.6579
  330SOL     OW 2430   2.686   2.849   7.122  0.1054  0.4417 -0.6418
  330SOL    HW1 2431   2.781   2.857   7.109  0.4650 -0.6575  1.0446
  330SOL    HW2 2432   2.676   2.785   7.192 -2.0013 -1.3366 -2.4207
  331SOL     OW 2433   0.458   4.976   1.506  0.1619  0.1803 -0.1474
  331SOL    HW1 2434   0.497   4.903   1.457  0.9936  1.6151 -1.7100
  331SOL    HW2 2435   0.470   4.952   1.598  1.5674 -1.0713 -0.6149
  332SOL     OW 2436   3.707   0.631   8.957  0.2115 -0.3191 -0.1526
  332SOL    HW1 2437   3.790   0.617   9.003 -0.6641  0.4944  1.7965
  332SOL    HW2 2438   3.724   0.705   8.899  0.5060  0.7607  1.2523
  333SOL     OW 2439   2.268   7.077   6.383  0.3471 -0.2426  0.0405
  333SOL    HW1 2440   2.259   6.982   6.389 -0.1692 -0.2614 -0.8359
  333SOL    HW2 2441   2.264   7.096   6.289 -0.0880  0.6945  0.2310
  334SOL     OW 2442   5.248   6.734   7.975  0.5453  0.0182 -0.1099
  334SOL    HW1 2443   5.250   6.829   7.980 -0.3175  0.0041  1.1199
  334SOL    HW2 2444   5.324   6.705   8.026  0.0148  0.0427  0.7058
  335SOL     OW 2445   1.555   2.956  11.222 -0.0681  0.2044 -0.0058
  335SOL    HW1 2446   1.508   2.946  11.305 -1.0097 -0.6438 -0.6221
  335SOL    HW2 2447   1.504   3.021  11.173 -1.1116 -1.2930 -0.9944
  336SOL     OW 2448   1.351   3.147  11.147  0.0459 -0.3756 -0.2643
  336SOL    HW1 2449   1.364   3.240  11.131 -2.1758  0.1514  0.6439
  336SOL    HW2 2450   1.269   3.142  11.195 -1.0269 -2.9748 -2.1328
  337SOL     OW 2451   6.458   5.184   5.358  0.3654  0.1121  0.2625
  337SOL    HW1 2452   6.396   5.233   5.304  1.1088 -0.5679 -1.2624
  337SOL    HW2 2453   6.443   5.217   5.447 -0.5595  1.6176 -0.4044
  338SOL     OW 2454   1.399   6.117   4.924  0.5687 -0.4019  0.2037
  338SOL    HW1 2455   1.393   6.209   4.898  1.2859 -0.2232  0.6326
  338SOL    HW2 2456   1.308   6.092   4.944  0.0621 -0.4022 -1.8869
  339SOL     OW 2457   5.646   3.083   1.763 -0.4509  0.3719 -0.1577
  339SOL    HW1 2458   5.636   3.162   1.711  1.9561  0.3075 -0.8174
  339SOL    HW2 2459   5.624   3.012   1.702  0.5770  0.3904 -0.5651
  340SOL     OW 2460   2.496   1.981  12.237 -0.0581  0.2004 -0.1353
  340SOL    HW1 2461   2.467   2.065  12.271  0.1155  0.9763 -1.7993
  340SOL    HW2 2462   2.472   1.983  12.144  1.9453 -0.6606 -0.7254
  341SOL     OW 2463   3.786   1.634   5.731 -0.2003  0.0669 -0.1747
  341SOL    HW1 2464   3.807   1.547   5.763 -1.2814 -0.5514 -1.0640
  341SOL    HW2 2465   3.868   1.666   5.693  0.4765 -0.1191  1.0842
  342SOL     OW 2466   7.670   1.690   2.940 -0.7340 -0.2690 -0.0897
  342SOL    HW1 2467   7.590   1.705   2.889 -0.3843  0.9054 -0.3075
  342SOL    HW2 2468   7.655   1.605   2.982 -0.6554 -1.8422 -2.9190
  343SOL     OW 2469   0.139   5.283   0.434 -0.1133 -0.0887  0.0617
  343SOL    HW1 2470   0.179   5.369   0.449  0.4299 -0.3253  0.0040
  343SOL    HW2 2471   0.214   5.224   0.423 -0.4595 -0.7530  1.1029
  344SOL     OW 2472   5.321   1.477   0.472  0.3067  0.6398  0.7922
  344SOL    HW1 2473   5.264   1.407   0.504 -0.3712 -0.1808 -1.9508
  344SOL    HW2 2474   5.265   1.528   0.413  2.0922  0.4128 -1.2030
  345SOL     OW 2475   3.261   6.665  10.557  0.3571 -0.1615 -0.0806
  345SOL    HW1 2476   3.284   6.726  10.627  0.4266  0.0070 -0.2497
  345SOL    HW2 2477   3.333   6.671  10.495 -0.3449  0.7075 -0.8367
  346SOL     OW 2478   2.266   4.230  10.169  0.3026 -0.3543  0.0284
  346SOL    HW1 2479   2.235   4.188  10.249 -1.2092 -1.1282 -0.9248
  346SOL    HW2 2480   2.345   4.277  10.196  0.1350 -1.0365  1.8461
  347SOL     OW 2481   3.709   3.940   2.072 -0.5332  0.0788  0.8216
  347SOL    HW1 2482   3.647   3.882   2.115  2.0749 -1.1952  3.2497
  347SOL    HW2 2483   3.716   4.015   2.131  0.7162 -0.1447  0.9825
  348SOL     OW 2484   1.742   1.605   0.097 -0.4437  0.1915  0.1145
  348SOL    HW1 2485   1.791   1.586   0.017 -0.0856  0.7586  0.1933
  348SOL    HW2 2486   1.806   1.644   0.156 -0.6653 -0.3756  0.7477
  349SOL     OW 2487   5.417   0.092   8.563  0.5266 -0.4370  0.1278
  349SOL    HW1 2488   5.407   0.184   8.538  0.1870 -0.7755 -1.0265
  349SOL    HW2 2489   5.497   0.064   8.520 -0.0384 -1.0152 -0.5671
  350SOL     OW 2490   6.254   2.069   3.255 -0.7879  0.0784  0.0950
  350SOL    HW1 2491   6.330   2.039   3.205  0.0586  1.8116  0.2660
  350SOL    HW2 2492   6.184   2.008   3.231  0.3493 -0.8885 -0.9294
  351SOL     OW 2493   3.781   2.472   3.775  0.0237 -0.6677  0.2272
  351SOL    HW1 2494   3.832   2.455   3.696 -1.9322  0.7821 -1.4564
  351SOL    HW2 2495   3.724   2.396   3.784 -0.2386 -0.5305 -0.2071
  352SOL     OW 2496   2.880   0.245   6.956 -0.7952 -0.2622 -0.3338
  352SOL    HW1 2497   2.872   0.232   7.051  1.4501  1.0369  0.1092
  352SOL    HW2 2498   2.970   0.219   6.937 -0.6424  1.2121 -1.7781
  353SOL     OW 2499   0.358   5.184   1.362  0.1970 -0.4584  0.6900
  353SOL    HW1 2500   0.411   5.107   1.383  1.1967  0.3556  1.2549
  353SOL    HW2 2501   0.420   5.247   1.326 -0.7306 -0.1593 -0.4400
  354SOL     OW 2502   0.526   6.065   9.027  0.8559  0.5902 -0.1063
  354SOL    HW1 2503   0.565   6.151   9.036  2.0851  0.3059 -2.1112
  354SOL    HW2 2504   0.534   6.044   8.933 -2.3781 -0.3236 -0.3152
  355SOL     OW 2505   2.628   1.510   5.457  0.3013  0.1110  0.2867
  355SOL    HW1 2506   2.622   1.595   5.413 -1.8677  0.4296  1.0263
  355SOL    HW2 2507   2.630   1.446   5.386 -2.0202  0.6591 -0.3710
  356SOL     OW 2508   4.148   7.460  11.065 -0.5434  0.2265  0.4697
  356SOL    HW1 2509   4.098   7.411  11.130  1.5774 -0.7040  1.4990
  356SOL    HW2 2510   4.224   7.493  11.113 -1.1390  3.3733 -0.5346
  357SOL     OW 2511   1.231   6.308  11.786  0.4831 -0.3495 -0.2448
  357SOL    HW1 2512   1.324   6.291  11.776  0.7537  1.1527 -0.4296
  357SOL    HW2 2513   1.200   6.237  11.843  1.9918 -0.1287  0.9157
  358SOL     OW 2514   5.438   2.869   3.176  0.7380 -0.5852  0.1422
  358SOL    HW1 2515   5.481   2.954   3.170 -0.3874  0.0964  1.2829
  358SOL    HW2 2516   5.462   2.835   3.263 -3.5112  1.3443  2.3872
  359SOL     OW 2517   2.588   2.340   1.063 -0.0273 -0.0329 -0.3867
  359SOL    HW1 2518   2.544   2.334   0.978  1.2038 -1.9515 -0.9603
  359SOL    HW2 2519   2.681   2.346   1.041  0.3026 -0.5413  0.8227
  360SOL     OW 2520   1.198   3.571  10.377  0.3525  0.2736 -0.2600
  360SOL    HW1 2521   1.115   3.537  10.410  0.0058  0.1345 -1.2387
  360SOL    HW2 2522   1.253   3.580  10.454 -0.0149 -1.1879  0.2006
  361SOL     OW 2523   2.033   4.264   5.943 -0.0767  0.5070 -0.1235
  361SOL    HW1 2524   1.960   4.213   5.978  0.2912 -0.6132 -0.9293
  361SOL    HW2 2525   2.109   4.234   5.992  0.3493 -0.6724 -1.4483
  362SOL     OW 2526   3.708   6.574   7.131  0.1929 -0.1784  0.5788
  362SOL    HW1 2527   3.756   6.608   7.206 -1.8692  0.2020  1.8209
  362SOL    HW2 2528   3.627   6.626   7.129 -0.0413 -0.5264 -1.6068
  363SOL     OW 2529   2.006   5.664   6.987 -0.0543  0.1676  0.5772
  363SOL    HW1 2530   2.047   5.748   6.966 -0.4050 -0.0354 -1.0117
  363SOL    HW2 2531   2.078   5.601   6.984 -0.1174  0.1228 -0.1899
  364SOL     OW 2532   3.750   6.889   2.554 -0.0812 -0.0699 -0.8120
  364SOL    HW1 2533   3.763   6.899   2.460  0.6498 -1.1410 -0.8534
  364SOL    HW2 2534   3.758   6.795   2.569  0.6523  0.1637  0.4298
  365SOL     OW 2535   5.721   7.788  12.401 -0.4539 -0.1559 -0.1923
  365SOL    HW1 2536   5.753   7.792  12.311 -0.8677  0.9190 -0.3063
  365SOL    HW2 2537   5.800   7.788  12.455 -0.1661 -1.7504 -0.5514
  366SOL     OW 2538   1.441   0.106   6.585 -0.5126 -0.1982  0.1696
  366SOL    HW1 2539   1.382   0.126   6.512 -0.3623  0.2031  0.1508
  366SOL    HW2 2540   1.455   0.191   6.628 -0.1095 -0.3216  0.2921
  367SOL     OW 2541   1.261   1.779   1.344 -0.7486 -0.3178 -0.1550
  367SOL    HW1 2542   1.251   1.688   1.373  0.8787 -0.3613  0.3444
  367SOL    HW2 2543   1.292   1.826   1.422  0.5009  0.2249 -0.9493
  368SOL     OW 2544   0.786   5.310   2.367  0.4179  0.0468  0.9938
  368SOL    HW1 2545   0.858   5.294   2.306  0.4640 -2.5846  1.6278
  368SOL    HW2 2546   0.826   5.301   2.454 -0.2184  0.9292  1.3911
  369SOL     OW 2547   0.068   7.840   0.673 -0.4189 -0.2021 -0.0977
  369SOL    HW1 2548  -0.010   7.845   0.618  0.2907  0.2631 -1.0836
  369SOL    HW2 2549   0.114   7.761   0.643  0.1171  0.2111 -0.3820
  370SOL     OW 2550   4.933   4.948   9.582 -0.2856  0.1789 -0.1405
  370SOL    HW1 2551   4.951   4.944   9.676 -2.4830  0.6735  0.3466
  370SOL    HW2 2552   4.939   5.041   9.561  1.2659 -0.0314 -0.7586
  371SOL     OW 2553   6.975   1.821   5.579 -0.5699  0.2490  0.0687
  371SOL    HW1 2554   7.059   1.863   5.558  0.0267 -0.7208  0.4220
  371SOL    HW2 2555   6.987   1.788   5.668 -0.7136 -1.3284 -0.4597
  372SOL     OW 2556   3.021   6.001   6.538 -0.1777  0.1357 -0.9515
  372SOL    HW1 2557   2.983   5.946   6.606  2.6804 -0.9700 -0.1122
  372SOL    HW2 2558   3.020   6.089   6.575  0.0932 -0.2347 -0.0321
  373SOL     OW 2559   6.311   7.496   8.954  0.0075  0.4317  0.9522
  373SOL    HW1 2560   6.392   7.524   8.996  0.8318 -2.6200  1.6136
  373SOL    HW2 2561   6.337   7.464   8.868 -1.0355  2.3372 -0.1542
  374SOL     OW 2562   1.178   7.919   4.973  0.2099 -0.3184 -0.4749
  374SOL    HW1 2563   1.204   7.953   5.058  2.2378  0.7948 -1.4784
  374SOL    HW2 2564   1.247   7.857   4.949  1.0785  1.2512 -2.3552
  375SOL     OW 2565   3.521   5.182   5.091 -0.3455 -0.2760  0.6000
  375SOL    HW1 2566   3.588   5.151   5.152  0.6567  0.1949 -0.2428
  375SOL    HW2 2567   3.473   5.248   5.140  1.1229  0.8635  0.5826
  376SOL     OW 2568   1.093   4.090   6.228 -0.3933 -0.6176  0.0085
  376SOL    HW1 2569   1.170   4.116   6.278  0.7139 -1.2659 -1.2901
  376SOL    HW2 2570   1.039   4.169   6.223  0.3115 -0.0831  0.7050
  377SOL     OW 2571   5.588   2.101   9.867 -0.2043 -0.0233 -0.5612
  377SOL    HW1 2572   5.544   2.119   9.783  0.2439  2.1517 -0.3926
  377SOL    HW2 2573   5.557   2.014   9.892 -1.2415 -0.2504 -2.4214
  378SOL     OW 2574   2.148   0.478   2.591  0.3729  0.5032  0.3648
  378SOL    HW1 2575   2.238   0.445   2.592  0.3623  0.4749  0.3655
  378SOL    HW2 2576   2.153   0.556   2.535  0.1859 -0.1019 -0.5049
  379SOL     OW 2577   0.123   0.667   7.832  0.1465  0.1376 -0.1847
  379SOL    HW1 2578   0.090   0.601   7.771  1.1879 -0.4987 -0.0920
  379SOL    HW2 2579   0.057   0.670   7.901 -0.9684  0.7448 -1.2281
  380SOL     OW 2580   6.418   5.721  12.313  0.4410 -0.0303  0.0714
  380SOL    HW1 2581   6.376   5.724  12.227  2.6479  0.6869 -1.0723
  380SOL    HW2 2582   6.498   5.670  12.298  0.3554 -0.7928  1.9692
  381SOL     OW 2583   2.898   7.083   4.583  0.1094  0.0173 -0.3959
  381SOL    HW1 2584   2.880   7.143   4.510 -0.9328  0.6191  0.3438
  381SOL    HW2 2585   2.945   7.010   4.542  0.1233  0.6514 -1.5589
  382SOL     OW 2586   7.874   1.497   9.651  0.3388 -0.1993 -0.0614
  382SOL    HW1 2587   7.897   1.435   9.581  0.1992  1.0560 -1.2670
  382SOL    HW2 2588   7.916   1.462   9.729  1.2790 -1.1680 -0.9683
  383SOL     OW 2589   2.655   5.898  10.955  0.1658 -0.1993 -0.6743
  383SOL    HW1 2590   2.640   5.880  11.048  2.0577 -0.6842 -0.4130
  383SOL    HW2 2591   2.599   5.973  10.935 -2.7207 -2.0404  0.0021
  384SOL     OW 2592   6.479   7.218  10.574 -0.1533  0.4206  0.2835
  384SOL    HW1 2593   6.493   7.255  10.661  0.8042  1.7854 -0.4264
  384SOL    HW2 2594   6.549   7.254  10.520 -0.7761 -0.3239 -1.0885
  385SOL     OW 2595   0.227   2.507   0.824  0.3133  0.3111 -0.1451
  385SOL    HW1 2596   0.315   2.511   0.786 -0.2550  1.0604 -1.4124
  385SOL    HW2 2597   0.242   2.473   0.913  1.6094 -2.1394 -1.1990
  386SOL     OW 2598   0.906   4.540   1.653 -0.5535 -0.5160 -0.0691
  386SOL    HW1 2599   0.942   4.514   1.569  0.2736  0.9023 -0.1837
  386SOL    HW2 2600   0.968   4.505   1.717  0.8337  1.5048 -0.2441
  387SOL     OW 2601   3.456   7.740   1.145 -0.6793  0.2221 -0.1396
  387SOL    HW1 2602   3.486   7.691   1.222  0.1093 -0.4355 -0.8362
  387SOL    HW2 2603   3.520   7.718   1.077 -2.5764 -0.9815 -1.6251
  388SOL     OW 2604   6.693   4.140   9.559  0.1177 -0.3979 -0.3849
  388SOL    HW1 2605   6.677   4.218   9.613  0.9654 -1.3077  1.2483
  388SOL    HW2 2606   6.747   4.172   9.486  1.3997  0.3893  0.8507
  389SOL     OW 2607   6.344   4.477   5.811 -0.1650  0.1590 -0.5836
  389SOL    HW1 2608   6.262   4.429   5.807  0.1330 -0.2791 -2.7948
  389SOL    HW2 2609   6.319   4.569   5.806 -0.5667  0.0583 -0.3764
  390SOL     OW 2610   4.342   1.773   8.456 -0.6526 -0.3654  0.4927
  390SOL    HW1 2611   4.422   1.796   8.409 -0.9090 -0.2719  0.0946
  390SOL    HW2 2612   4.281   1.843   8.434 -1.7080 -1.7426 -1.3707
  391SOL     OW 2613   4.518   3.567   7.639 -0.3919  0.6424 -0.6683
  391SOL    HW1 2614   4.462   3.527   7.573 -0.7815  1.9313 -1.1555
  391SOL    HW2 2615   4.591   3.506   7.650 -0.5797  0.1746 -1.9147
  392SOL     OW 2616   4.932   7.703   6.639 -0.3069  0.5712  0.3140
  392SOL    HW1 2617   4.900   7.685   6.551  1.1808 -1.0465  0.0462
  392SOL    HW2 2618   5.028   7.708   6.629  0.2501 -2.9902  2.2655
  393SOL     OW 2619   3.617   4.890   0.979  0.3865  0.1974 -0.6237
  393SOL    HW1 2620   3.544   4.934   1.022 -0.2330 -2.1756  0.9170
  393SOL    HW2 2621   3.577   4.838   0.910  0.7638 -0.0318 -0.6755
  394SOL     OW 2622   4.778   6.638   9.339 -0.0154 -0.0321  0.3495
  394SOL    HW1 2623   4.766   6.702   9.409  1.0889 -0.2506  0.7699
  394SOL    HW2 2624   4.691   6.623   9.304 -0.6256 -0.0932  1.8406
  395SOL     OW 2625   7.713   0.498  10.561 -0.0775  0.7532 -0.1903
  395SOL    HW1 2626   7.708   0.420  10.616 -1.9659  0.4247 -0.7420
  395SOL    HW2 2627   7.806   0.513  10.548  0.3733 -2.6849 -1.8286
  396SOL     OW 2628   6.778   5.226   9.383  0.0434  0.1800 -0.8137
  396SOL    HW1 2629   6.742   5.313   9.399 -0.4825  0.3451 -2.6123
  396SOL    HW2 2630   6.872   5.236   9.400 -0.3052  0.4821  1.1598
  397SOL     OW 2631   5.588   4.843   1.368 -0.0150  0.5143  0.4788
  397SOL    HW1 2632   5.563   4.770   1.425 -0.7175  0.2161 -0.1871
  397SOL    HW2 2633   5.538   4.829   1.288  1.2061  0.7221 -0.3563
  398SOL     OW 2634   5.418   6.038   3.188  0.5176  0.1707  0.1357
  398SOL    HW1 2635   5.363   6.085   3.251 -1.9632  1.1586 -2.5893
  398SOL    HW2 2636   5.373   5.956   3.172 -0.2228  0.9237 -2.0159
  399SOL     OW 2637   1.446   7.775  12.404 -0.6582  0.3640 -0.6871
  399SOL    HW1 2638   1.439   7.785  12.309 -0.5970  0.6527 -0.6599
  399SOL    HW2 2639   1.359   7.795  12.437 -0.6677  0.3077 -0.6779
  400SOL     OW 2640   4.594   4.176  10.826  0.2672  0.3775  0.2497
  400SOL    HW1 2641   4.583   4.271  10.837  0.5378  0.2995  1.3170
  400SOL    HW2 2642   4.664   4.168  10.761  0.0063  0.9055 -0.1038
  401SOL     OW 2643   0.200   7.384   2.527  0.2310 -0.1128 -0.1262
  401SOL    HW1 2644   0.279   7.330   2.518 -0.0102 -0.4484 -0.2540
  401SOL    HW2 2645   0.141   7.332   2.581 -0.5740 -0.6370 -1.4481
  402SOL     OW 2646   1.486   5.407  10.472  0.6838 -0.1535 -0.4210
  402SOL    HW1 2647   1.562   5.350  10.460  1.8178  1.3429 -0.6706
  402SOL    HW2 2648   1.518   5.494  10.451 -0.5233  0.8629  1.6653
  403SOL     OW 2649   5.021   7.501   4.907 -0.0913 -0.1977 -0.2323
  403SOL    HW1 2650   5.059   7.483   4.821  1.1626  3.2304 -0.5279
  403SOL    HW2 2651   4.940   7.549   4.889 -0.9226 -1.2670  0.5213
  404SOL     OW 2652   1.480   7.133   4.888 -0.1159  0.0313  0.4566
  404SOL    HW1 2653   1.457   7.065   4.951 -0.5289  0.2157  0.5145
  404SOL    HW2 2654   1.568   7.111   4.858 -0.6034 -1.0564 -0.2234
  405SOL     OW 2655   1.915   0.129   2.519  0.1983 -1.0648 -0.4477
  405SOL    HW1 2656   1.847   0.158   2.459  0.2436  0.0704  0.0241
  405SOL    HW2 2657   1.990   0.109   2.462  0.6002  1.0355 -0.7130
  406SOL     OW 2658   6.080   7.863   7.149  0.2137  0.1832  0.2814
  406SOL    HW1 2659   6.116   7.796   7.091  0.4431 -0.6060  1.2884
  406SOL    HW2 2660   5.996   7.827   7.178  0.8525 -0.2278  1.7188
  407SOL     OW 2661   3.335   4.673   0.972 -0.3184  0.1842  0.4575
  407SOL    HW1 2662   3.251   4.714   0.950 -0.2897  0.5086  0.9233
  407SOL    HW2 2663   3.393   4.695   0.899 -0.0206  1.8551  1.1273
  408SOL     OW 2664   1.841   6.227   7.186  0.1222 -0.1691  0.3529
  408SOL    HW1 2665   1.862   6.134   7.187  0.1783 -0.1538  0.5966
  408SOL    HW2 2666   1.820   6.246   7.094  0.4180 -0.3512  0.2482
  409SOL     OW 2667   7.384   3.048  10.871  0.4608 -0.0037  0.2623
  409SOL    HW1 2668   7.410   3.119  10.812 -0.1356  1.0881  1.2793
  409SOL    HW2 2669   7.289   3.049  10.870  0.4342  0.2567  1.4808
  410SOL     OW 2670   2.161   4.541   1.196 -0.1973 -0.3247  0.1308
  410SOL    HW1 2671   2.194   4.625   1.166 -0.0280 -0.4332  0.0107
  410SOL    HW2 2672   2.090   4.520   1.135  0.1658 -0.5585 -0.2148
  411SOL     OW 2673   2.797   5.086   9.157  0.1113 -0.4737  0.0734
  411SOL    HW1 2674   2.890   5.090   9.181  0.0318  1.0103  0.2060
  411SOL    HW2 2675   2.795   5.112   9.065 -0.1608 -0.7856 -0.0136
  412SOL     OW 2676   3.690   6.207   4.548  0.1783  0.2409  0.5769
  412SOL    HW1 2677   3.773   6.167   4.574  0.3979  1.0740  1.1984
  412SOL    HW2 2678   3.683   6.286   4.601 -1.0582  0.1478  0.5999
  413SOL     OW 2679   0.510   1.770   4.043 -0.0841 -0.7775  0.1235
  413SOL    HW1 2680   0.567   1.695   4.058  1.1609  0.6042  3.4115
  413SOL    HW2 2681   0.552   1.820   3.973 -1.2064 -3.2202 -2.4843
  414SOL     OW 2682   1.539   0.402   6.185 -0.1131 -0.3486  0.1018
  414SOL    HW1 2683   1.613   0.377   6.130  1.8702 -2.1268  3.2416
  414SOL    HW2 2684   1.512   0.487   6.151  1.3057 -1.0223 -3.1239
  415SOL     OW 2685   4.126   5.399   0.926  0.0138  0.0971  0.0367
  415SOL    HW1 2686   4.200   5.414   0.985  0.6412  1.5377 -1.0470
  415SOL    HW2 2687   4.050   5.427   0.976  0.6019  1.9489 -0.0138
  416SOL     OW 2688   6.180   5.543   1.869 -0.1132  0.4020 -0.2122
  416SOL    HW1 2689   6.270   5.511   1.858 -0.3713 -0.4038 -0.0780
  416SOL    HW2 2690   6.129   5.464   1.883 -1.4434  0.4097 -3.8777
  417SOL     OW 2691   3.903   5.245   0.308 -0.4374 -0.2359  0.2518
  417SOL    HW1 2692   3.988   5.288   0.320  0.9697 -2.7367 -0.1736
  417SOL    HW2 2693   3.865   5.242   0.396  0.8163 -0.7951  0.7985
  418SOL     OW 2694   1.814   2.776  12.348 -0.8632 -0.6551  0.3132
  418SOL    HW1 2695   1.798   2.762  12.441  0.2876 -0.6162  0.5379
  418SOL    HW2 2696   1.749   2.721  12.303 -1.6299 -0.4359  1.1252
  419SOL     OW 2697   7.009   4.049   9.579  0.1718  0.0692  0.0572
  419SOL    HW1 2698   7.036   4.021   9.492  0.9303 -1.2161  0.6664
  419SOL    HW2 2699   6.938   3.989   9.602  1.0586 -0.6946  0.9342
  420SOL     OW 2700   4.530   6.157   5.685 -0.1282  0.1380 -0.0416
  420SOL    HW1 2701   4.472   6.207   5.741 -0.4380 -1.4998  1.1541
  420SOL    HW2 2702   4.490   6.162   5.598 -0.7626  0.9766  0.2921
  421SOL     OW 2703   6.851   6.229   7.535  0.6173 -0.4880  0.6495
  421SOL    HW1 2704   6.900   6.152   7.504  0.9824 -0.7233  1.7544
  421SOL    HW2 2705   6.916   6.298   7.542  0.5000 -0.3809  0.6943
  422SOL     OW 2706   4.239   1.084  11.431  0.1088  0.2021  0.2637
  422SOL    HW1 2707   4.152   1.123  11.419 -0.2973 -0.2935  1.5093
  422SOL    HW2 2708   4.286   1.108  11.351 -0.6147  1.9297  0.3025
  423SOL     OW 2709   7.849   4.780   8.264  0.5307 -0.0889  0.4873
  423SOL    HW1 2710   7.896   4.820   8.337 -0.3184  1.2544  0.3283
  423SOL    HW2 2711   7.879   4.689   8.263  1.2864  0.1214  1.8922
  424SOL     OW 2712   7.572   2.825   3.016 -0.4484 -0.2261  0.4338
  424SOL    HW1 2713   7.650   2.851   2.968  0.5038 -0.5711  1.7532
  424SOL    HW2 2714   7.511   2.898   3.003  0.9492  1.1515  1.2952
  425SOL     OW 2715   0.937   6.789   9.815 -0.5584  0.3305  0.3007
  425SOL    HW1 2716   0.925   6.705   9.859  0.2367 -0.7216 -1.3803
  425SOL    HW2 2717   0.889   6.780   9.733 -0.7581  1.6681  0.2542
  426SOL     OW 2718   5.854   0.212   5.839  0.3907 -0.0130 -0.0638
  426SOL    HW1 2719   5.776   0.256   5.872  0.3545  1.1079 -1.5443
  426SOL    HW2 2720   5.926   0.268   5.865  0.4113  0.5659 -1.2769
  427SOL     OW 2721   6.920   6.737   0.221 -0.1751  0.3145  0.3361
  427SOL    HW1 2722   6.886   6.701   0.140  1.9580 -2.2275  0.4243
  427SOL    HW2 2723   6.884   6.682   0.290  0.4882  0.4558  0.8157
  428SOL     OW 2724   7.231   6.009   9.523 -0.0044 -0.1849  0.2344
  428SOL    HW1 2725   7.261   5.952   9.452  0.4151 -0.2247  0.4418
  428SOL    HW2 2726   7.165   5.958   9.570  1.6970 -1.2380  1.5643
  429SOL     OW 2727   7.112   7.727   1.973  0.1519  0.3624  0.7645
  429SOL    HW1 2728   7.079   7.776   2.048 -0.7611  0.6156  0.2208
  429SOL    HW2 2729   7.146   7.794   1.913 -2.1630  0.5043 -0.4984
  430SOL     OW 2730   0.844   3.462   8.451  0.5250 -0.4976  0.0402
  430SOL    HW1 2731   0.782   3.416   8.394 -0.9147  1.9658 -0.4758
  430SOL    HW2 2732   0.887   3.525   8.394  1.1086  0.1077  1.1190
  431SOL     OW 2733   7.001   1.720   5.824 -0.2623  0.2871  0.0594
  431SOL    HW1 2734   7.060   1.646   5.809 -0.2187  0.8047 -3.0307
  431SOL    HW2 2735   6.914   1.680   5.825 -0.1285 -0.0039  0.2486
  432SOL     OW 2736   4.841   3.050  11.482 -0.3178 -0.0414  0.1017
  432SOL    HW1 2737   4.805   3.137  11.463  0.6954  0.3581 -0.0325
  432SOL    HW2 2738   4.873   3.056  11.572  0.1097 -0.1494 -0.0415
  433SOL     OW 2739   0.608   4.460   5.149 -0.5076  0.2764  0.9257
  433SOL    HW1 2740   0.588   4.368   5.161 -0.0286  0.0904  0.3580
  433SOL    HW2 2741   0.563   4.505   5.221 -2.3456 -0.1808  0.1057
  434SOL     OW 2742   3.800   0.412   5.175 -0.2089 -0.2604  0.0473
  434SOL    HW1 2743   3.809   0.431   5.269 -0.1902  1.3803 -0.2466
  434SOL    HW2 2744   3.868   0.347   5.157  1.7164  1.4490  0.6694
  435SOL     OW 2745   7.575   7.748  11.972 -0.5487  0.0099 -0.1710
  435SOL    HW1 2746   7.634   7.822  11.957 -1.5257  0.9634  0.5296
  435SOL    HW2 2747   7.607   7.709  12.054 -1.7904  1.4787  1.0560
  436SOL     OW 2748   5.386   6.270   4.575  0.2136 -0.1702  0.0839
  436SOL    HW1 2749   5.393   6.215   4.653  2.0673 -0.0137  0.0532
  436SOL    HW2 2750   5.295   6.300   4.576  0.1381 -0.3192  2.0814
  437SOL     OW 2751   0.951   2.586   7.939 -0.5986  0.1563 -0.4036
  437SOL    HW1 2752   0.980   2.632   8.017  0.0400 -0.5105 -0.2346
  437SOL    HW2 2753   0.886   2.523   7.970  1.2479 -1.6748 -0.0114
  438SOL     OW 2754   5.920   2.152  11.435 -0.4164  0.1090 -0.3030
  438SOL    HW1 2755   5.903   2.121  11.524 -1.0106  1.2416 -0.0014
  438SOL    HW2 2756   5.932   2.247  11.444  2.6604 -0.1108 -1.0018
  439SOL     OW 2757   6.261   0.930  10.589  0.0769 -0.4447 -0.0853
  439SOL    HW1 2758   6.201   0.950  10.518  0.6877 -0.2680 -0.5610
  439SOL    HW2 2759   6.284   1.016  10.626  1.1855 -0.3825 -0.8724
  440SOL     OW 2760   4.162   5.827   4.771  0.3293  0.1105  0.0591
  440SOL    HW1 2761   4.071   5.805   4.754  0.0194  0.8372  0.7294
  440SOL    HW2 2762   4.211   5.781   4.703 -0.4491 -1.0769  0.2730
  441SOL     OW 2763   4.462   1.388   8.172  0.2508  0.3359  0.8357
  441SOL    HW1 2764   4.465   1.293   8.178  0.0528  0.1881 -0.8946
  441SOL    HW2 2765   4.397   1.414   8.237 -0.7711 -0.8531  0.3297
  442SOL     OW 2766   3.676   6.283   3.786 -0.4668  0.3481 -0.3058
  442SOL    HW1 2767   3.652   6.201   3.828  2.2161 -1.4730 -2.0392
  442SOL    HW2 2768   3.706   6.339   3.859 -0.0673 -1.1021  0.6949
  443SOL     OW 2769   6.176   4.630   4.353 -0.1925  0.0053  0.1130
  443SOL    HW1 2770   6.248   4.689   4.331  0.9161 -1.1902  0.4189
  443SOL    HW2 2771   6.097   4.681   4.336  0.6573  0.7187 -2.1561
  444SOL     OW 2772   1.553   5.118   2.949 -0.3226 -0.3644  0.1037
  444SOL    HW1 2773   1.627   5.153   2.900 -2.2600  2.4597 -1.0193
  444SOL    HW2 2774   1.552   5.170   3.030 -1.8937  0.7267 -0.5679
  445SOL     OW 2775   5.297   2.378   0.299 -0.0030  0.0712 -0.7453
  445SOL    HW1 2776   5.266   2.321   0.229  0.6006  0.3770 -1.2688
  445SOL    HW2 2777   5.392   2.373   0.294  0.0607 -0.9720  0.9411
  446SOL     OW 2778   4.426   2.619   1.902 -0.1811 -0.1338 -0.0129
  446SOL    HW1 2779   4.342   2.654   1.930  0.1065 -0.3072  1.0898
  446SOL    HW2 2780   4.408   2.527   1.882 -0.6781  0.2965 -1.7832
  447SOL     OW 2781   2.997   5.476   3.164 -0.0204  0.3121  0.2211
  447SOL    HW1 2782   2.902   5.471   3.150  0.1860 -0.1685 -1.1793
  447SOL    HW2 2783   3.020   5.393   3.205 -0.0141 -0.2519 -0.8670
  448SOL     OW 2784   0.980   4.688   2.007  0.5198 -0.0471 -0.4860
  448SOL    HW1 2785   1.066   4.662   1.975  0.7242 -1.3125  0.9969
  448SOL    HW2 2786   0.932   4.715   1.929  2.9888  3.0608 -1.1453
  449SOL     OW 2787   7.257   6.182  10.185 -0.1102 -0.0705 -0.7738
  449SOL    HW1 2788   7.227   6.262  10.143 -0.9523 -0.4992 -1.0277
  449SOL    HW2 2789   7.179   6.126  10.187  0.2085 -0.4996  0.3039
  450SOL     OW 2790   1.616   7.939  11.204 -0.5515  0.3128  0.0107
  450SOL    HW1 2791   1.617   7.867  11.267 -0.2498 -0.1273 -0.4984
  450SOL    HW2 2792   1.705   7.974  11.205 -0.3465 -0.1651 -0.7027
  451SOL     OW 2793   0.679   3.767   0.529  0.3563 -0.4496  0.0959
  451SOL    HW1 2794   0.639   3.682   0.514 -1.4531  0.3471  0.1302
  451SOL    HW2 2795   0.612   3.830   0.504  2.1333  1.0082 -1.2453
  452SOL     OW 2796   5.946   1.210   7.814  0.5682  0.3954  0.1984
  452SOL    HW1 2797   5.998   1.130   7.803 -0.5624 -0.4130  0.5006
  452SOL    HW2 2798   5.944   1.225   7.909 -0.5852 -0.1757  0.2771
  453SOL     OW 2799   1.557   4.298   2.754 -0.1728  0.2639 -0.4250
  453SOL    HW1 2800   1.586   4.389   2.762  0.4662  0.2340 -1.9479
  453SOL    HW2 2801   1.478   4.304   2.699 -1.0164  0.0093  0.7174
  454SOL     OW 2802   5.767   2.128  11.699 -0.3995 -0.1194  0.4397
  454SOL    HW1 2803   5.721   2.116  11.782  0.7278  1.5890  1.3718
  454SOL    HW2 2804   5.852   2.087  11.713  0.6806  2.1688  1.0345
  455SOL     OW 2805   7.521   2.838   1.955 -0.2144  0.7069  0.1150
  455SOL    HW1 2806   7.611   2.842   1.987 -0.4545 -1.1284  1.1685
  455SOL    HW2 2807   7.498   2.929   1.936  1.4741  1.3336  0.8811
  456SOL     OW 2808   5.551   0.534   9.633 -0.3719  0.8661 -0.3883
  456SOL    HW1 2809   5.542   0.487   9.716  0.9945 -0.1654 -0.7780
  456SOL    HW2 2810   5.646   0.538   9.618 -0.4731  3.1870 -0.7315
  457SOL     OW 2811   7.052   1.614   9.530  0.3451 -0.6806 -0.2087
  457SOL    HW1 2812   7.029   1.530   9.489  1.1179 -1.0571  0.1073
  457SOL    HW2 2813   7.058   1.675   9.457  1.2113 -1.2332 -0.6168
  458SOL     OW 2814   7.244   1.957   5.400 -0.5338  0.2354  0.2130
  458SOL    HW1 2815   7.268   2.042   5.437 -0.8479  0.5264 -0.2405
  458SOL    HW2 2816   7.318   1.900   5.422 -0.4865  0.5240  0.8457
  459SOL     OW 2817   1.879   4.535   7.551  0.3376  0.3118 -0.1079
  459SOL    HW1 2818   1.927   4.463   7.593  1.4068  1.6841  1.1644
  459SOL    HW2 2819   1.789   4.505   7.546  0.8037 -1.2006  0.1736
  460SOL     OW 2820   4.392   5.774  11.465  0.0721 -0.0709 -0.1513
  460SOL    HW1 2821   4.428   5.850  11.419  2.1526 -0.4529  0.6919
  460SOL    HW2 2822   4.445   5.767  11.545 -2.6213 -0.1341  1.7724
  461SOL     OW 2823   7.331   3.065  11.623  0.1186  0.2616  0.0101
  461SOL    HW1 2824   7.299   2.977  11.641  0.0797  0.2866  0.0628
  461SOL    HW2 2825   7.385   3.055  11.544  1.3753 -0.0772  0.8947
  462SOL     OW 2826   2.763   7.243  11.735  0.2750 -0.3151  0.9062
  462SOL    HW1 2827   2.772   7.201  11.650 -0.9734 -0.8771  1.0286
  462SOL    HW2 2828   2.814   7.189  11.794 -1.1777 -1.6250  1.0276
  463SOL     OW 2829   5.182   5.286  10.478  0.3576  0.3629 -0.1157
  463SOL    HW1 2830   5.101   5.281  10.427  0.3840 -0.6265 -0.0878
  463SOL    HW2 2831   5.178   5.210  10.536  1.2296  0.3990  0.0060
  464SOL     OW 2832   7.640   0.631   5.907 -0.2340  0.2213 -0.2357
  464SOL    HW1 2833   7.549   0.628   5.877 -0.7656 -0.0242  1.3612
  464SOL    HW2 2834   7.675   0.544   5.888 -0.7256 -0.1056  0.3513
  465SOL     OW 2835   2.223   0.713   5.350 -0.1750  0.0454 -0.5706
  465SOL    HW1 2836   2.259   0.674   5.430  0.6267  1.8494  0.0033
  465SOL    HW2 2837   2.270   0.670   5.279  1.9184  1.1130  0.1071
  466SOL     OW 2838   7.366   2.745   3.243 -0.0117  0.2937 -0.2278
  466SOL    HW1 2839   7.285   2.713   3.283  1.2531  0.8424  3.0922
  466SOL    HW2 2840   7.344   2.832   3.210 -0.8322  0.3324  0.4130
  467SOL     OW 2841   5.506   6.896   6.374 -0.0282  0.0160  0.1028
  467SOL    HW1 2842   5.434   6.918   6.434  1.4042  2.1472  1.1610
  467SOL    HW2 2843   5.527   6.978   6.330  0.2208 -1.1019 -1.9984
  468SOL     OW 2844   7.164   7.246   5.544 -0.2472  0.1484 -0.2528
  468SOL    HW1 2845   7.103   7.258   5.617  0.8667  2.7737  0.3670
  468SOL    HW2 2846   7.249   7.230   5.586  0.6444  2.8963 -0.7995
  469SOL     OW 2847   1.853   5.360   5.086  0.0468  0.0337  0.0569
  469SOL    HW1 2848   1.823   5.270   5.072 -0.2510  0.1390  0.0138
  469SOL    HW2 2849   1.885   5.361   5.176 -1.4154  0.2823  0.6019
  470SOL     OW 2850   3.254   7.259   6.539 -0.1910 -0.1172 -0.4116
  470SOL    HW1 2851   3.164   7.267   6.569 -0.0392  0.8474 -0.1615
  470SOL    HW2 2852   3.306   7.264   6.619  0.0217 -4.3169 -0.0660
  471SOL     OW 2853   3.532   0.784  11.073  0.0233 -0.7449  0.1199
  471SOL    HW1 2854   3.620   0.821  11.069 -0.3055  0.0185 -0.7998
  471SOL    HW2 2855   3.540   0.706  11.127  1.3593 -0.9546 -0.3420
  472SOL     OW 2856   6.200   0.284  11.697 -0.1787  0.2577  0.1071
  472SOL    HW1 2857   6.132   0.264  11.634  1.0360  0.2435 -1.2401
  472SOL    HW2 2858   6.233   0.370  11.671  0.9631 -0.1544  0.1394
  473SOL     OW 2859   0.987   5.925   7.983  0.4311  0.0925 -0.5896
  473SOL    HW1 2860   1.026   5.907   7.898  0.1477 -0.6481 -0.5740
  473SOL    HW2 2861   0.905   5.972   7.964  0.6167  0.3736 -0.6951
  474SOL     OW 2862   4.206   0.900   6.235  0.7902 -0.3528  0.1206
  474SOL    HW1 2863   4.148   0.834   6.196 -0.5221 -0.5144  2.2383
  474SOL    HW2 2864   4.166   0.984   6.212  0.2525 -0.4333  0.7570
  475SOL     OW 2865   3.737   3.127   8.887 -0.0851  0.3441  0.7741
  475SOL    HW1 2866   3.655   3.137   8.936 -1.2914 -0.1313 -1.0422
  475SOL    HW2 2867   3.789   3.203   8.911 -2.2912  2.2839 -0.2339
  476SOL     OW 2868   3.536   6.394   8.776 -0.1912  0.2858 -0.7246
  476SOL    HW1 2869   3.458   6.447   8.761  0.0565  1.1157  0.7738
  476SOL    HW2 2870   3.503   6.304   8.778 -1.4378  0.7337  1.6782
  477SOL     OW 2871   0.099   0.166   7.743 -0.7843 -0.0440  0.3359
  477SOL    HW1 2872   0.120   0.075   7.723 -1.1733 -0.1296  0.3012
  477SOL    HW2 2873   0.065   0.164   7.832 -1.3946 -0.0321  0.1112
  478SOL     OW 2874   1.075   6.190   1.687 -0.0080  0.0779 -0.0117
  478SOL    HW1 2875   1.116   6.176   1.602 -0.2936  0.5847 -0.2375
  478SOL    HW2 2876   1.045   6.281   1.685 -0.5462 -0.0816  0.4012
  479SOL     OW 2877   3.908   2.014   7.217  0.7067 -0.4380 -0.0985
  479SOL    HW1 2878   3.967   2.006   7.292  1.1664  1.0362 -0.2711
  479SOL    HW2 2879   3.889   1.924   7.192  1.3223 -0.9511  1.1793
  480SOL     OW 2880   3.460   2.855  10.414 -0.6785 -0.4064 -0.5420
  480SOL    HW1 2881   3.382   2.896  10.451 -0.5875 -0.5273 -0.2182
  480SOL    HW2 2882   3.468   2.895  10.327  1.4426  3.0128  1.0300
  481SOL     OW 2883   6.793   7.333   4.683  0.6562  0.6375 -0.3032
  481SOL    HW1 2884   6.811   7.287   4.601  0.6627 -0.8127  0.4875
  481SOL    HW2 2885   6.880   7.349   4.721  0.7203  2.2401 -1.0348
  482SOL     OW 2886   5.408   3.483   1.484  0.5614 -0.0714 -0.2947
  482SOL    HW1 2887   5.366   3.563   1.513  0.4535  0.3838 -1.6311
  482SOL    HW2 2888   5.413   3.491   1.389  1.6643 -1.1052 -0.3563
  483SOL     OW 2889   0.077   6.992   5.834 -0.0178  0.1060  0.2133
  483SOL    HW1 2890   0.163   7.029   5.854 -0.6480  1.4870  0.5098
  483SOL    HW2 2891   0.026   7.007   5.913 -0.7831  0.1081 -0.2781
  484SOL     OW 2892   7.375   6.912   4.537 -0.6054  0.0148  0.1724
  484SOL    HW1 2893   7.393   6.972   4.609 -0.7542 -0.5564  0.6917
  484SOL    HW2 2894   7.311   6.851   4.572  1.0919 -1.7500  0.3414
  485SOL     OW 2895   2.666   3.625   8.620 -0.4635 -0.2364 -0.6561
  485SOL    HW1 2896   2.584   3.577   8.608 -1.0031  0.2162  0.9613
  485SOL    HW2 2897   2.650   3.682   8.695  1.6696 -0.9295  0.4226
  486SOL     OW 2898   3.245   4.746   0.392 -0.8558 -0.9649 -0.3175
  486SOL    HW1 2899   3.249   4.833   0.432 -0.2206  0.1847 -2.6813
  486SOL    HW2 2900   3.334   4.712   0.397 -0.6296 -0.5429 -1.2502
  487SOL     OW 2901   2.346   0.796   6.424  0.3890  0.3140  0.4271
  487SOL    HW1 2902   2.436   0.767   6.438 -0.0923 -1.1309  0.7631
  487SOL    HW2 2903   2.320   0.835   6.507 -0.2057 -1.9249  1.3570
  488SOL     OW 2904   5.530   6.322   1.146 -0.3223 -0.4474 -0.2809
  488SOL    HW1 2905   5.486   6.279   1.073  1.9410 -2.4932 -0.5801
  488SOL    HW2 2906   5.546   6.252   1.209  2.1832  0.1762 -0.1114
  489SOL     OW 2907   4.353   7.016  10.911  0.4409  1.0495 -0.1263
  489SOL    HW1 2908   4.409   6.953  10.865  1.1702 -0.9002  3.1373
  489SOL    HW2 2909   4.414   7.081  10.945 -0.1537  2.7807 -2.1443
  490SOL     OW 2910   2.684   1.179   0.372  0.0504  0.1167  0.0034
  490SOL    HW1 2911   2.720   1.092   0.354 -1.0055 -0.1962 -0.7070
  490SOL    HW2 2912   2.646   1.207   0.288  0.4419  1.3086  0.2012
  491SOL     OW 2913   4.559   3.980   0.290 -0.3983 -0.4997  0.5767
  491SOL    HW1 2914   4.473   3.967   0.251 -0.1616 -2.2699  0.5793
  491SOL    HW2 2915   4.605   4.035   0.226 -1.0759 -0.6673 -0.0748
  492SOL     OW 2916   1.667   7.407  11.093 -0.7143 -0.0916 -0.1743
  492SOL    HW1 2917   1.581   7.406  11.052 -0.4752 -1.4332 -0.6697
  492SOL    HW2 2918   1.666   7.334  11.155  0.0624 -0.1117 -0.1706
  493SOL     OW 2919   0.706   6.216   9.562  0.6265  0.1405 -0.3910
  493SOL    HW1 2920   0.750   6.205   9.646 -1.7230  1.7183  1.1696
  493SOL    HW2 2921   0.617   6.185   9.577  0.1440  0.4311 -2.3213
  494SOL     OW 2922   2.120   4.058  11.515 -0.9785 -0.2938  0.9754
  494SOL    HW1 2923   2.101   3.966  11.498 -0.7812 -0.2162  0.2949
  494SOL    HW2 2924   2.215   4.062  11.520 -1.0332 -0.3780  2.5586
  495SOL     OW 2925   1.565   2.672   3.704 -0.2402  0.8921 -0.0917
  495SOL    HW1 2926   1.561   2.592   3.756  2.1715  0.1023 -0.9800
  495SOL    HW2 2927   1.534   2.645   3.617 -0.8682  1.3332 -0.0169
  496SOL     OW 2928   5.150   7.202   9.769  0.2383 -0.7531  0.3051
  496SOL    HW1 2929   5.214   7.151   9.720 -1.8802 -1.4552 -1.9664
  496SOL    HW2 2930   5.152   7.289   9.728  0.3461 -0.5185  0.8042
  497SOL     OW 2931   2.229   2.123   2.816  0.1301  0.3414 -0.3933
  497SOL    HW1 2932   2.306   2.180   2.808 -0.4508  1.2302  0.1354
  497SOL    HW2 2933   2.219   2.108   2.910  1.6947 -2.6961 -0.6040
  498SOL     OW 2934   1.747   3.508   1.164  0.3086  0.5631 -0.0983
  498SOL    HW1 2935   1.751   3.585   1.108 -2.3536  0.0594 -1.1009
  498SOL    HW2 2936   1.772   3.435   1.106 -2.8661 -0.0169 -0.9088
  499SOL     OW 2937   6.989   2.654   3.943  0.1705 -0.0267 -0.0087
  499SOL    HW1 2938   7.077   2.630   3.970  0.0805  0.0014  0.3186
  499SOL    HW2 2939   6.953   2.573   3.905 -0.9724 -1.2024  3.2339
  500SOL     OW 2940   2.399   5.691   6.065 -0.1900 -0.3329  0.0425
  500SOL    HW1 2941   2.345   5.760   6.104 -1.4363 -1.8982  1.1895
  500SOL    HW2 2942   2.357   5.673   5.981  1.7188  2.0976 -1.5921
  501SOL     OW 2943   7.060   2.206   2.455  0.0817  0.2124 -0.0051
  501SOL    HW1 2944   7.033   2.296   2.469  0.3767  0.6525 -2.0122
  501SOL    HW2 2945   7.089   2.203   2.364 -1.0894 -2.1987 -0.3700
  502SOL     OW 2946   6.738   4.383  10.575  0.0411 -0.8299 -0.1622
  502SOL    HW1 2947   6.752   4.288  10.573  0.7413 -0.7363 -0.1808
  502SOL    HW2 2948   6.734   4.409  10.483  1.5116 -0.6293 -0.1909
  503SOL     OW 2949   1.478   4.232   7.736 -0.2465  0.0515 -0.2023
  503SOL    HW1 2950   1.528   4.283   7.799 -1.9877 -0.8172  2.0205
  503SOL    HW2 2951   1.495   4.141   7.760 -1.0007 -0.2978 -0.9415
  504SOL     OW 2952   7.140   7.579   0.538  0.0682 -0.2125 -0.4734
  504SOL    HW1 2953   7.082   7.559   0.611  0.4292  0.6356  0.0620
  504SOL    HW2 2954   7.225   7.544   0.564  0.1302 -0.1698 -0.6172
  505SOL     OW 2955   4.915   6.698   9.716  0.1654 -0.2205 -0.3560
  505SOL    HW1 2956   4.926   6.778   9.665 -0.6022  0.4638  0.5312
  505SOL    HW2 2957   4.982   6.639   9.682 -0.5291  0.0979 -2.3608
  506SOL     OW 2958   3.828   0.498   1.885 -0.3549  0.4769 -0.0339
  506SOL    HW1 2959   3.752   0.537   1.928 -1.0085  0.4532 -1.1428
  506SOL    HW2 2960   3.823   0.528   1.794 -0.6844 -1.8752 -0.8627
  507SOL     OW 2961   4.432   1.049   3.116  0.2824  0.2720  0.4154
  507SOL    HW1 2962   4.448   1.018   3.027  2.0219  1.5319  0.2415
  507SOL    HW2 2963   4.404   1.140   3.105  2.0271  0.9359  1.1886
  508SOL     OW 2964   3.126   5.116  11.139 -0.0436  0.2790 -0.2431
  508SOL    HW1 2965   3.208   5.069  11.157 -1.2316 -1.3818  1.0805
  508SOL    HW2 2966   3.151   5.182  11.075  2.6578  0.8190  1.1913
  509SOL     OW 2967   3.138   0.995   2.233  0.0225  0.0557  0.4560
  509SOL    HW1 2968   3.118   0.942   2.156 -0.6006  0.6048  0.2228
  509SOL    HW2 2969   3.164   1.080   2.196  2.5373 -0.5064  0.7534
  510SOL     OW 2970   1.039   7.038   1.313  0.0759  0.1912 -0.2337
  510SOL    HW1 2971   0.956   6.990   1.305  0.3086 -0.1731 -0.5229
  510SOL    HW2 2972   1.024   7.102   1.383 -0.2166 -0.3719  0.2306
  511SOL     OW 2973   3.784   3.632   1.513 -0.0929 -0.5877 -0.2890
  511SOL    HW1 2974   3.759   3.704   1.456  1.1228 -0.7449 -1.0496
  511SOL    HW2 2975   3.860   3.664   1.561  0.5078 -1.3719 -0.6860
  512SOL     OW 2976   2.004   3.793   4.976  0.6173 -0.4653  0.1718
  512SOL    HW1 2977   1.941   3.861   4.951  0.6723  0.0544  1.3504
  512SOL    HW2 2978   2.008   3.799   5.072  1.2561 -1.5766  0.2272
  513SOL     OW 2979   3.507   2.731   3.054  0.2026 -0.0691  0.2024
  513SOL    HW1 2980   3.503   2.682   3.136 -1.3980 -0.8211 -0.2868
  513SOL    HW2 2981   3.552   2.673   2.993  0.1591 -0.0800  0.1806
  514SOL     OW 2982   2.661   1.856   3.032  0.2041 -0.0744 -0.1559
  514SOL    HW1 2983   2.613   1.854   2.950  0.4095  0.2163 -0.2848
  514SOL    HW2 2984   2.682   1.948   3.046  0.2750 -0.1364  0.1609
  515SOL     OW 2985   2.835   4.275   2.395  0.3520  0.1054  0.2191
  515SOL    HW1 2986   2.845   4.203   2.333 -0.2259  0.9524 -0.8808
  515SOL    HW2 2987   2.863   4.237   2.479  0.9987 -1.1043 -0.5030
  516SOL     OW 2988   7.321   5.230  11.625  0.0036  0.7376 -0.3275
  516SOL    HW1 2989   7.325   5.325  11.617 -4.8108  1.2246 -0.2764
  516SOL    HW2 2990   7.366   5.196  11.548  1.7362  3.0259 -0.3947
  517SOL     OW 2991   1.983   1.186   0.562  0.6212  0.7851  0.5376
  517SOL    HW1 2992   1.992   1.103   0.515 -0.9570  0.6482  0.4034
  517SOL    HW2 2993   1.998   1.253   0.495  0.3761  0.5956  0.2895
  518SOL     OW 2994   1.653   6.986   0.123 -0.1785 -0.3557 -0.7172
  518SOL    HW1 2995   1.722   6.922   0.143  0.0718  0.1230 -0.0294
  518SOL    HW2 2996   1.616   7.009   0.208 -0.7045 -0.0643 -1.0199
  519SOL     OW 2997   1.320   3.764   3.333 -0.4862 -0.1824 -0.7307
  519SOL    HW1 2998   1.317   3.709   3.411 -1.1517  1.0854  0.1785
  519SOL    HW2 2999   1.391   3.728   3.280 -0.5543 -1.5640  0.0776
  520SOL     OW 3000   1.105   3.112   6.236 -0.5688  0.2249  0.3372
  520SOL    HW1 3001   1.042   3.164   6.287 -0.2414  1.5710 -0.5846
  520SOL    HW2 3002   1.114   3.030   6.285 -0.6954  1.2443  2.1241
  521SOL     OW 3003   7.378   6.314   2.340 -0.0339  0.3137 -0.0323
  521SOL    HW1 3004   7.323   6.392   2.345  0.5946  0.9555 -2.1198
  521SOL    HW2 3005   7.465   6.347   2.316  0.9873 -0.7928  1.9656
  522SOL     OW 3006   2.508   6.723   0.113 -0.1806 -0.3516 -0.3781
  522SOL    HW1 3007   2.557   6.652   0.155 -0.9219 -0.8845 -0.3976
  522SOL    HW2 3008   2.573   6.769   0.060  0.4799 -0.5069  0.2906
  523SOL     OW 3009   5.788   3.913   8.295 -0.3301 -0.2782 -0.3188
  523SOL    HW1 3010   5.747   3.844   8.244  0.1927 -1.2265  0.5032
  523SOL    HW2 3011   5.811   3.980   8.231  0.2590 -1.4012 -1.3251
  524SOL     OW 3012   7.685   1.679   0.052  0.0564  0.2803  0.0247
  524SOL    HW1 3013   7.754   1.688  -0.013 -0.1912  2.8030 -0.0059
  524SOL    HW2 3014   7.613   1.636   0.006  1.0648 -1.0732 -0.3424
  525SOL     OW 3015   3.644   0.183   9.865  0.3126  0.5127 -0.2951
  525SOL    HW1 3016   3.604   0.265   9.893  0.9015  0.2401  1.4355
  525SOL    HW2 3017   3.583   0.149   9.799 -0.7267  1.5856  0.0679
  526SOL     OW 3018   1.872   5.702   1.531 -0.4495  0.2483  0.3824
  526SOL    HW1 3019   1.953   5.738   1.566  0.3672 -1.0727 -0.0820
  526SOL    HW2 3020   1.810   5.774   1.535  0.7316  1.2691  0.7975
  527SOL     OW 3021   4.302   1.587   1.937  0.2273  0.2412 -0.0663
  527SOL    HW1 3022   4.306   1.498   1.972 -2.7284 -0.4367 -1.1153
  527SOL    HW2 3023   4.301   1.576   1.842 -0.2379  1.3719 -0.2149
  528SOL     OW 3024   7.200   5.172   4.810  0.0304  0.2473 -0.3325
  528SOL    HW1 3025   7.163   5.132   4.731  0.6167 -1.2284  0.0991
  528SOL    HW2 3026   7.168   5.262   4.809 -0.5750  0.0442 -1.8585
  529SOL     OW 3027   4.219   2.411  10.036 -0.0763  0.2444  0.3297
  529SOL    HW1 3028   4.254   2.372  10.116 -1.1446  0.9473  1.1690
  529SOL    HW2 3029   4.282   2.479  10.013  0.0786  0.2533  0.7655
  530SOL     OW 3030   0.930   5.359   2.599  0.3999 -0.3008 -0.0167
  530SOL    HW1 3031   0.886   5.426   2.652  0.2630  0.5274 -1.1411
  530SOL    HW2 3032   1.019   5.391   2.589  0.2886 -0.1993 -0.7001
  531SOL     OW 3033   2.526   7.204   4.830  0.1241  0.3327  0.1156
  531SOL    HW1 3034   2.453   7.205   4.768  0.9157  1.1094 -0.8516
  531SOL    HW2 3035   2.601   7.175   4.778  0.6072  0.0058  0.9736
  532SOL     OW 3036   6.398   5.111   4.680 -0.0595  0.1174 -0.5557
  532SOL    HW1 3037   6.407   5.117   4.585 -1.5575 -0.7967 -0.7847
  532SOL    HW2 3038   6.358   5.026   4.695  1.4382 -0.3826  1.0141
  533SOL     OW 3039   0.191   3.725   1.270  0.2544  0.1475 -0.0964
  533SOL    HW1 3040   0.262   3.760   1.324 -2.4020  2.8315  2.0066
  533SOL    HW2 3041   0.220   3.637   1.246  4.1220  0.9953  0.8027
  534SOL     OW 3042   1.999   0.374  11.801  0.0754 -0.1429  0.3723
  534SOL    HW1 3043   1.995   0.460  11.843 -0.3566 -0.3417  0.7460
  534SOL    HW2 3044   2.014   0.313  11.874  0.8067 -0.3439  0.0619
  535SOL     OW 3045   0.347   3.125   3.144 -0.3752 -0.0779 -0.1761
  535SOL    HW1 3046   0.309   3.044   3.110  1.3611 -0.1931 -2.0254
  535SOL    HW2 3047   0.351   3.183   3.069  1.9311  0.3260  0.1813
  536SOL     OW 3048   7.414   3.258   9.515 -0.5367 -0.2619  0.3616
  536SOL    HW1 3049   7.354   3.288   9.584 -1.0247 -1.5630  0.5381
  536SOL    HW2 3050   7.460   3.337   9.487 -0.2550  0.2912  2.2441
  537SOL     OW 3051   5.111   2.070   6.292 -0.0633  0.2558 -0.0233
  537SOL    HW1 3052   5.112   2.094   6.199 -1.6087  0.6963  0.0306
  537SOL    HW2 3053   5.058   1.990   6.296  0.4705 -0.0805  0.4169
  538SOL     OW 3054   6.107   2.431  12.344  0.4009  0.2888  0.5617
  538SOL    HW1 3055   6.152   2.452  12.426  1.7239 -2.1201  0.5591
  538SOL    HW2 3056   6.117   2.336  12.335  1.4515  0.5899 -3.0259
  539SOL     OW 3057   7.781   5.897   9.308  0.4756 -0.7162  0.0655
  539SOL    HW1 3058   7.721   5.851   9.366  0.2021  0.6223  0.8758
  539SOL    HW2 3059   7.841   5.829   9.277 -0.3903 -1.7524  0.5984
  540SOL     OW 3060   3.866   4.676   9.355 -0.6825  0.3884  0.0127
  540SOL    HW1 3061   3.820   4.641   9.278  0.5738 -1.0828 -0.1158
  540SOL    HW2 3062   3.917   4.749   9.321  0.1997 -0.5160 -0.6750
  541SOL     OW 3063   3.525   2.346   8.674 -0.0235  0.3867  0.1016
  541SOL    HW1 3064   3.549   2.258   8.706 -1.5356 -0.2354 -0.3676
  541SOL    HW2 3065   3.512   2.397   8.754  2.8076  0.7957  0.3756
  542SOL     OW 3066   4.970   4.113   8.450 -0.1162  0.4558 -0.1660
  542SOL    HW1 3067   4.887   4.135   8.409 -0.2152  0.6685  0.1519
  542SOL    HW2 3068   4.965   4.019   8.466 -0.3979  0.5166  0.0912
  543SOL     OW 3069   4.759   5.774  12.362  0.1351 -0.5484  0.4756
  543SOL    HW1 3070   4.825   5.712  12.393  1.6852  1.2478  0.9915
  543SOL    HW2 3071   4.808   5.855  12.347 -1.9605  0.8384  0.7679
  544SOL     OW 3072   6.972   2.023   6.752 -0.3430 -0.5617  0.1041
  544SOL    HW1 3073   7.065   2.003   6.738  0.0730  1.0768  0.3688
  544SOL    HW2 3074   6.969   2.117   6.766 -1.6467 -0.9764  3.3634
  545SOL     OW 3075   6.752   7.151   8.103 -0.0182  0.0052  0.5584
  545SOL    HW1 3076   6.772   7.073   8.154  0.5770  0.1986  0.6232
  545SOL    HW2 3077   6.667   7.132   8.062 -0.4580 -0.1839  1.5413
  546SOL     OW 3078   1.561   0.030  11.971 -0.3528  0.3779 -0.4385
  546SOL    HW1 3079   1.585  -0.063  11.972 -1.2987  0.1284  0.8636
  546SOL    HW2 3080   1.611   0.069  12.043 -1.2238  0.5334  0.0936
  547SOL     OW 3081   4.819   5.053   2.719 -0.3661  0.5159 -0.1115
  547SOL    HW1 3082   4.795   4.967   2.754  0.9493  0.4255  0.6264
  547SOL    HW2 3083   4.844   5.035   2.628 -2.6133  0.5624 -0.7968
  548SOL     OW 3084   4.179   6.800   4.337 -0.1292  0.1706 -0.1021
  548SOL    HW1 3085   4.151   6.716   4.372  2.4264 -0.3755  0.8837
  548SOL    HW2 3086   4.275   6.799   4.345 -0.0205  3.4458  0.6180
  549SOL     OW 3087   4.173   0.431   9.208  0.5304 -0.5548 -0.3853
  549SOL    HW1 3088   4.260   0.409   9.175  0.2820 -1.7095 -0.3051
  549SOL    HW2 3089   4.184   0.516   9.250  1.6233 -0.6959 -0.3573
  550SOL     OW 3090   0.871   4.668  11.309 -0.1074 -0.4625  0.3620
  550SOL    HW1 3091   0.851   4.659  11.216 -0.2622  0.1332  0.3308
  550SOL    HW2 3092   0.854   4.582  11.346  0.2326 -0.7775 -0.2142
  551SOL     OW 3093   3.001   7.321   2.270  0.0234 -0.3744 -0.3472
  551SOL    HW1 3094   2.994   7.416   2.277  0.0278 -0.2529 -1.7790
  551SOL    HW2 3095   3.017   7.292   2.360  0.3745  1.0001  0.0621
  552SOL     OW 3096   0.403   7.361   1.699  0.2121 -0.1899  0.2466
  552SOL    HW1 3097   0.421   7.278   1.655 -0.0224 -1.0693  1.7395
  552SOL    HW2 3098   0.489   7.401   1.711  0.2726  0.1118 -1.0463
  553SOL     OW 3099   5.796   3.721   5.816  0.0312  0.2100 -0.5884
  553SOL    HW1 3100   5.784   3.804   5.861  1.3256  0.1074 -0.0080
  553SOL    HW2 3101   5.723   3.666   5.848  1.1534 -0.0259  1.8363
  554SOL     OW 3102   1.223   2.619   3.895  0.2058 -0.5207  0.1016
  554SOL    HW1 3103   1.240   2.698   3.946 -1.5025 -0.8126  1.1758
  554SOL    HW2 3104   1.188   2.651   3.812 -0.2119 -0.1409  0.4223
  555SOL     OW 3105   7.855   0.461  12.076 -0.1974 -0.4855  0.4048
  555SOL    HW1 3106   7.945   0.429  12.069 -0.0995 -0.0036 -0.8756
  555SOL    HW2 3107   7.844   0.517  11.999 -1.4062 -0.0667  0.8619
  556SOL     OW 3108   7.486   0.511   2.672 -0.7154  0.2477 -0.1307
  556SOL    HW1 3109   7.549   0.439   2.676  1.1566  1.8022 -0.1006
  556SOL    HW2 3110   7.439   0.497   2.590  0.2738 -0.5161 -0.5958
  557SOL     OW 3111   5.916   5.117  11.451  0.5614  0.0992  0.0231
  557SOL    HW1 3112   5.929   5.033  11.409  0.4079  1.0153 -1.9777
  557SOL    HW2 3113   5.830   5.146  11.420  0.4427  0.8413  0.9842
  558SOL     OW 3114   4.435   2.643  10.936 -0.9974 -1.0921 -0.3699
  558SOL    HW1 3115   4.498   2.705  10.972  0.9818 -2.5312 -1.1232
  558SOL    HW2 3116   4.357   2.653  10.990  0.5394 -0.5580  1.9073
  559SOL     OW 3117   3.275   0.054   8.301  0.3734  0.4504 -0.2500
  559SOL    HW1 3118   3.204   0.088   8.356  0.6567 -1.7287  1.6522
  559SOL    HW2 3119   3.235   0.042   8.215 -1.6422 -0.6658  0.7403
  560SOL     OW 3120   4.696   5.743  11.544  0.4916  0.0414 -0.2699
  560SOL    HW1 3121   4.775   5.717  11.494  1.0066 -1.1260  1.0762
  560SOL    HW2 3122   4.685   5.836  11.525  2.2049  0.2320 -0.4867
  561SOL     OW 3123   2.822   7.679   1.609  0.0940 -0.2015  0.3790
  561SOL    HW1 3124   2.887   7.692   1.540 -1.7041 -0.3639 -1.4797
  561SOL    HW2 3125   2.770   7.759   1.609  0.9511  0.4249  2.6648
  562SOL     OW 3126   5.492   3.796   8.428 -0.8646 -0.3970  0.4239
  562SOL    HW1 3127   5.516   3.771   8.339 -2.4534 -1.2345  0.1851
  562SOL    HW2 3128   5.421   3.860   8.417 -0.1652  0.5239  1.0947
  563SOL     OW 3129   4.216   5.630   5.612 -0.1283 -0.0245 -0.0199
  563SOL    HW1 3130   4.194   5.646   5.704 -0.0815  0.3384 -0.0741
  563SOL    HW2 3131   4.309   5.652   5.606 -0.5082  1.4849 -0.5197
  564SOL     OW 3132   7.258   4.895   3.935 -0.2787  0.0777 -0.2154
  564SOL    HW1 3133   7.332   4.843   3.905 -0.0211 -0.7881  1.7340
  564SOL    HW2 3134   7.297   4.968   3.983 -0.6683  0.4257 -0.4249
  565SOL     OW 3135   5.476   2.842   4.721  0.2225 -0.2614 -0.4942
  565SOL    HW1 3136   5.467   2.895   4.800 -1.8380  1.3865 -1.7456
  565SOL    HW2 3137   5.389   2.804   4.708  0.3869 -0.0929 -2.2185
  566SOL     OW 3138   2.312   4.670  12.006  0.2822 -0.2986  0.2763
  566SOL    HW1 3139   2.279   4.584  11.982 -0.0289 -0.1126  0.0388
  566SOL    HW2 3140   2.323   4.666  12.101  0.7184 -0.7554  0.2141
  567SOL     OW 3141   4.590   5.698   6.707  0.1236  0.2982  0.5288
  567SOL    HW1 3142   4.670   5.648   6.725 -0.4037 -0.0384  2.0714
  567SOL    HW2 3143   4.524   5.659   6.764 -2.0177 -1.4724 -2.8039
  568SOL     OW 3144   7.301   4.442   6.310 -0.1239 -0.3231  0.3810
  568SOL    HW1 3145   7.362   4.484   6.249 -1.2190 -1.1263 -1.3479
  568SOL    HW2 3146   7.293   4.504   6.382 -0.0369  1.4421 -1.0551
  569SOL     OW 3147   4.244   3.155   2.291  0.0318  0.1401  0.4332
  569SOL    HW1 3148   4.164   3.108   2.266 -0.7612  1.1601  0.9862
  569SOL    HW2 3149   4.252   3.139   2.385 -0.5897  1.5788  0.7516
  570SOL     OW 3150   2.117   5.613  11.636 -0.0693 -0.0738  0.8052
  570SOL    HW1 3151   2.089   5.593  11.546  0.0616 -1.7179  1.0961
  570SOL    HW2 3152   2.119   5.528  11.680  1.9822  0.4033  1.7708
  571SOL     OW 3153   6.366   6.419  11.761  0.0006  0.7724 -0.0011
  571SOL    HW1 3154   6.385   6.507  11.727  2.4563  0.7461  1.1255
  571SOL    HW2 3155   6.443   6.395  11.811 -1.1539 -1.5385  0.8177
  572SOL     OW 3156   1.062   4.930   6.597 -0.5114 -0.0533  0.0987
  572SOL    HW1 3157   1.040   4.843   6.563  1.1819 -0.9661  1.1886
  572SOL    HW2 3158   1.157   4.927   6.611 -0.3189  2.1779 -0.3617
  573SOL     OW 3159   2.831   2.566   8.790  0.8167 -0.0460 -0.1238
  573SOL    HW1 3160   2.786   2.513   8.855  0.0516 -1.1813 -1.5053
  573SOL    HW2 3161   2.906   2.512   8.764  1.1333  0.4094 -0.1602
  574SOL     OW 3162   0.669   2.718  10.061 -0.1454 -0.1630  0.5270
  574SOL    HW1 3163   0.668   2.663  10.140 -0.3623 -1.7024 -0.5014
  574SOL    HW2 3164   0.758   2.708  10.027 -0.0820  0.4111  0.5254
  575SOL     OW 3165   0.530   1.149   2.156 -0.1842  0.1444 -0.2256
  575SOL    HW1 3166   0.620   1.149   2.189 -0.7887  0.5763  1.5315
  575SOL    HW2 3167   0.532   1.208   2.080  0.8677  0.6851  0.2074
  576SOL     OW 3168   1.540   4.232   2.390 -0.0387  0.2024  0.4863
  576SOL    HW1 3169   1.491   4.150   2.386  0.0866  0.1635 -0.2706
  576SOL    HW2 3170   1.622   4.209   2.434 -0.4446  0.1490  1.2385
  577SOL     OW 3171   2.511   2.445   7.848  0.3492  0.0779  0.6580
  577SOL    HW1 3172   2.594   2.400   7.832  0.5306 -0.2364  2.2467
  577SOL    HW2 3173   2.448   2.375   7.863 -0.5487  0.2817 -1.8298
  578SOL     OW 3174   5.671   4.992   4.211  0.0659  0.4082 -0.3520
  578SOL    HW1 3175   5.761   4.964   4.229  0.2644  2.0746  1.6237
  578SOL    HW2 3176   5.673   5.020   4.120  0.8636 -1.9129 -1.1237
  579SOL     OW 3177   6.329   4.080   7.454 -0.1269 -0.1515  0.0764
  579SOL    HW1 3178   6.356   4.016   7.520 -3.1612 -2.2295 -0.4901
  579SOL    HW2 3179   6.405   4.090   7.398  0.6769 -2.9492  0.4999
  580SOL     OW 3180   7.765   3.850  11.253  0.3043  0.1617 -0.3553
  580SOL    HW1 3181   7.715   3.770  11.235 -1.2033  1.2654 -1.2663
  580SOL    HW2 3182   7.762   3.899  11.171  1.8943  0.8163 -0.0554
  581SOL     OW 3183   2.220   2.691   0.576 -0.2550  0.0618  0.0018
  581SOL    HW1 3184   2.295   2.746   0.554 -1.4104  1.3130 -0.9840
  581SOL    HW2 3185   2.257   2.618   0.625  1.4494  1.2251  0.5302
  582SOL     OW 3186   2.315   0.815   2.959 -0.2053  0.4806 -0.0790
  582SOL    HW1 3187   2.357   0.871   3.024 -2.5302 -0.0352  2.0337
  582SOL    HW2 3188   2.331   0.859   2.875  1.2412  2.2336  1.0440
  583SOL     OW 3189   5.944   5.231   9.671  0.2546 -0.2039 -0.5935
  583SOL    HW1 3190   5.988   5.150   9.694  0.2752  0.3170  1.3114
  583SOL    HW2 3191   5.915   5.268   9.754  2.2969  2.9448 -1.1219
  584SOL     OW 3192   5.021   0.459   3.861 -0.5352 -0.0710 -1.0601
  584SOL    HW1 3193   4.966   0.381   3.855 -1.4489  0.5583 -1.2406
  584SOL    HW2 3194   5.073   0.458   3.781 -0.9344 -0.2182 -1.3234
  585SOL     OW 3195   1.193   1.231  12.029  0.3416  0.2026  0.5102
  585SOL    HW1 3196   1.220   1.146  11.995 -0.6658  0.4319 -0.9499
  585SOL    HW2 3197   1.212   1.293  11.958 -1.5018  0.7657  0.4690
  586SOL     OW 3198   3.695   6.552   1.666  0.0594  0.2960  0.1520
  586SOL    HW1 3199   3.780   6.594   1.658  0.2223  0.5692  2.5442
  586SOL    HW2 3200   3.632   6.622   1.649  0.2924  0.3465 -0.5425
  587SOL     OW 3201   1.139   3.462   8.982 -0.3428 -0.3557 -0.7396
  587SOL    HW1 3202   1.164   3.552   8.999 -1.0287 -0.6142  2.2215
  587SOL    HW2 3203   1.197   3.410   9.037 -2.5615 -1.3766  0.8209
  588SOL     OW 3204   4.829   5.109   1.958 -0.0267  0.4416  0.2625
  588SOL    HW1 3205   4.743   5.071   1.942 -0.4670  0.6975  1.9216
  588SOL    HW2 3206   4.872   5.048   2.018  0.7099  0.6470 -0.0353
  589SOL     OW 3207   4.310   7.010  12.332  0.2317 -0.5740  1.1973
  589SOL    HW1 3208   4.366   7.087  12.347 -0.5214 -0.2759  2.7019
  589SOL    HW2 3209   4.339   6.947  12.398 -1.2810 -0.3525  2.1147
  590SOL     OW 3210   5.036   2.252   1.046 -0.0213  0.1407 -0.2927
  590SOL    HW1 3211   5.109   2.223   0.990  0.8356 -0.2322  0.9606
  590SOL    HW2 3212   4.977   2.177   1.048  1.0567 -0.7399  1.0663
  591SOL     OW 3213   7.409   6.073   1.775 -0.0577  0.0423 -0.0184
  591SOL    HW1 3214   7.439   6.158   1.805 -1.1376  0.4558 -0.0492
  591SOL    HW2 3215   7.444   6.064   1.686  2.5522 -0.8742  1.0220
  592SOL     OW 3216   4.706   5.310   7.966  0.0397  0.1158  0.1928
  592SOL    HW1 3217   4.704   5.222   7.929  3.3095 -0.1679  0.3510
  592SOL    HW2 3218   4.707   5.297   8.061  2.1220  0.1206  0.2269
  593SOL     OW 3219   0.917   2.640   6.209 -0.1296  0.4306 -0.0070
  593SOL    HW1 3220   0.853   2.598   6.266 -2.2274  1.7749 -1.2388
  593SOL    HW2 3221   0.880   2.726   6.190  1.1064  0.5421 -2.3147
  594SOL     OW 3222   0.215   7.544   5.703 -0.0683  0.6472  0.4344
  594SOL    HW1 3223   0.244   7.619   5.756  0.4607  0.1028  0.9284
  594SOL    HW2 3224   0.293   7.492   5.691 -0.3634  0.3492 -0.2122
  595SOL     OW 3225   4.675   1.202   3.532  0.0886 -0.1455  0.0641
  595SOL    HW1 3226   4.629   1.240   3.458  0.7067  0.4321 -0.0303
  595SOL    HW2 3227   4.745   1.264   3.552 -1.6567  1.1007  2.8710
  596SOL     OW 3228   5.168   3.024   1.639 -0.8769 -0.1133  0.1228
  596SOL    HW1 3229   5.233   3.093   1.635  0.7980 -1.6572 -0.3128
  596SOL    HW2 3230   5.175   2.990   1.728 -0.7377 -0.5978 -0.0704
  597SOL     OW 3231   6.796   2.343   9.464  0.2258 -0.1802  0.1275
  597SOL    HW1 3232   6.735   2.361   9.393  0.5183  0.4424  0.0268
  597SOL    HW2 3233   6.793   2.421   9.519  1.6057  0.2590 -0.3703
  598SOL     OW 3234   5.668   4.909  10.705 -0.0488  0.0819  0.1175
  598SOL    HW1 3235   5.756   4.878  10.682 -0.5502 -0.8962 -0.5651
  598SOL    HW2 3236   5.654   4.878  10.794 -0.4076 -1.4493 -0.4320
  599SOL     OW 3237   7.048   7.024   7.881 -0.1731  0.6012  0.0135
  599SOL    HW1 3238   7.011   7.113   7.883 -1.6232  0.0473 -0.5397
  599SOL    HW2 3239   7.087   7.017   7.793  2.3798  1.5698  0.9755
  600SOL     OW 3240   4.352   6.933   2.341 -0.3448  1.0731  0.0658
  600SOL    HW1 3241   4.305   6.883   2.408  0.2789  1.4904  0.8266
  600SOL    HW2 3242   4.404   6.996   2.390 -0.1959  1.6693 -0.8381
  601SOL     OW 3243   1.095   6.891   3.114 -0.2551 -0.5471  0.0415
  601SOL    HW1 3244   1.164   6.945   3.152  1.1924 -2.7087  0.6544
  601SOL    HW2 3245   1.024   6.952   3.097  1.3599  1.5815  0.4561
  602SOL     OW 3246   2.596   7.304   8.824  0.0031  0.1479  0.0106
  602SOL    HW1 3247   2.595   7.314   8.919  0.2514 -1.0907  0.1658
  602SOL    HW2 3248   2.514   7.258   8.804 -0.0042  0.3163 -0.3584
  603SOL     OW 3249   3.914   4.570   8.944 -0.0859  0.1942  0.0747
  603SOL    HW1 3250   3.892   4.497   9.002  1.3008  0.7714  1.4074
  603SOL    HW2 3251   3.837   4.626   8.944 -1.8165 -1.9446 -2.2299
  604SOL     OW 3252   6.281   2.560   1.632  0.1524  0.1700  0.2478
  604SOL    HW1 3253   6.291   2.643   1.680 -1.0211  0.6355 -0.2821
  604SOL    HW2 3254   6.277   2.586   1.540 -0.4570 -0.4586  0.0951
  605SOL     OW 3255   2.316   1.161  11.150  0.6368 -0.3956 -0.3218
  605SOL    HW1 3256   2.356   1.165  11.236  1.6177 -2.1218 -0.6537
  605SOL    HW2 3257   2.371   1.100  11.100  0.3367  0.8566 -2.2979
  606SOL     OW 3258   5.217   5.929   4.385  0.7492 -0.9271 -0.1199
  606SOL    HW1 3259   5.149   5.964   4.442  0.7627  0.0764 -0.6811
  606SOL    HW2 3260   5.290   5.909   4.443  0.2801 -1.2122  0.3771
  607SOL     OW 3261   7.908   2.994   2.379 -0.0308  0.0054 -0.4462
  607SOL    HW1 3262   7.835   2.933   2.374  0.4492 -0.5470 -0.7787
  607SOL    HW2 3263   7.907   3.039   2.295  0.4907 -0.5631 -0.7626
  608SOL     OW 3264   7.893   2.563  10.349 -0.0461  0.3734  0.1315
  608SOL    HW1 3265   7.930   2.642  10.309 -2.7725  1.7958  0.1820
  608SOL    HW2 3266   7.928   2.563  10.438  1.7624  0.1995 -0.5265
  609SOL     OW 3267   5.801   3.926   1.141 -0.2720  0.5243 -0.6364
  609SOL    HW1 3268   5.888   3.920   1.103 -0.9504 -0.1832 -2.1612
  609SOL    HW2 3269   5.797   4.015   1.177  0.3448  1.3659 -2.5033
  610SOL     OW 3270   1.626   6.801   1.350 -0.3970  0.6850  0.1356
  610SOL    HW1 3271   1.692   6.733   1.364  0.8554  1.7752 -0.3687
  610SOL    HW2 3272   1.578   6.772   1.273  0.5845  0.7069 -0.4990
  611SOL     OW 3273   4.834   1.480   8.454  0.4428 -0.0935 -0.1262
  611SOL    HW1 3274   4.869   1.390   8.454 -0.0633 -0.3254  1.7717
  611SOL    HW2 3275   4.784   1.486   8.373  2.3920 -0.7248 -1.4624
  612SOL     OW 3276   4.336   6.071   0.719 -0.1298  0.5694 -0.2011
  612SOL    HW1 3277   4.424   6.039   0.700 -0.2087  0.9213 -1.2195
  612SOL    HW2 3278   4.278   6.006   0.681 -0.2946  1.2972 -1.2177
  613SOL     OW 3279   5.129   7.410   4.684  0.0530  0.2722  0.4178
  613SOL    HW1 3280   5.067   7.376   4.619  1.1934  0.0367 -0.5885
  613SOL    HW2 3281   5.199   7.450   4.632  1.0394  0.0101  1.4908
  614SOL     OW 3282   3.025   5.263   3.959  0.1227 -0.0143  0.3139
  614SOL    HW1 3283   2.938   5.298   3.978  0.3925  0.7303  0.1986
  614SOL    HW2 3284   3.046   5.209   4.035 -0.3559 -0.0290  0.4388
  615SOL     OW 3285   6.481   2.428   7.073  0.5276 -0.0428  0.2434
  615SOL    HW1 3286   6.506   2.496   7.010  0.4031 -0.8862 -0.7512
  615SOL    HW2 3287   6.399   2.460   7.111 -0.6767 -0.5529 -1.7582
  616SOL     OW 3288   5.102   6.506   9.676  0.1371 -0.1322 -0.2017
  616SOL    HW1 3289   5.099   6.425   9.625  0.3192 -1.2741  1.4951
  616SOL    HW2 3290   5.195   6.530   9.677 -0.1085  1.1315 -2.1499
  617SOL     OW 3291   5.374   2.009   1.663 -0.0328 -0.2687  0.1921
  617SOL    HW1 3292   5.282   2.035   1.663 -0.1432 -0.6211  1.1813
  617SOL    HW2 3293   5.391   1.979   1.752  0.7812 -1.1310 -0.2356
  618SOL     OW 3294   1.778   6.441   3.211  0.2857  0.1054 -0.5398
  618SOL    HW1 3295   1.752   6.377   3.278  0.1338  1.4936  0.8060
  618SOL    HW2 3296   1.702   6.448   3.154 -0.2547  0.1715  0.1779
  619SOL     OW 3297   3.206   1.119   9.746 -0.5651 -0.4406  0.1951
  619SOL    HW1 3298   3.245   1.130   9.659  0.3824  0.0792  0.6684
  619SOL    HW2 3299   3.271   1.068   9.794  0.4769  2.0147  1.5763
  620SOL     OW 3300   6.572   2.990   5.544 -0.0264  0.4404  0.2432
  620SOL    HW1 3301   6.485   3.021   5.518 -0.9189 -1.8939  0.1533
  620SOL    HW2 3302   6.610   3.063   5.592 -2.4303  1.2463  1.1054
  621SOL     OW 3303   2.867   5.054   1.562  0.4489  0.4907  0.5835
  621SOL    HW1 3304   2.795   4.996   1.536 -1.1359  2.2240  0.9487
  621SOL    HW2 3305   2.936   5.035   1.498 -1.2310  0.4938 -1.3449
  622SOL     OW 3306   3.410   3.387  10.307 -0.7560  0.2658  0.2444
  622SOL    HW1 3307   3.335   3.361  10.360 -1.0180  2.6525  1.1663
  622SOL    HW2 3308   3.478   3.410  10.371 -0.0654  0.4182 -0.5285
  623SOL     OW 3309   5.917   5.812   2.922 -0.9562 -0.0236  0.5564
  623SOL    HW1 3310   5.822   5.816   2.914 -0.9315 -0.2397  0.0836
  623SOL    HW2 3311   5.943   5.746   2.857 -0.4611  0.2482  0.4782
  624SOL     OW 3312   5.910   5.515  11.079 -0.0553  0.2505 -0.9863
  624SOL    HW1 3313   5.921   5.599  11.124  0.0595  0.5164 -1.5077
  624SOL    HW2 3314   5.988   5.465  11.102 -0.0093  0.3760 -0.8682
  625SOL     OW 3315   4.753   4.296   8.400  0.4682 -0.1598  0.5048
  625SOL    HW1 3316   4.750   4.384   8.437 -0.4602  0.1039 -0.1691
  625SOL    HW2 3317   4.792   4.308   8.313 -1.1803 -0.1376 -0.2715
  626SOL     OW 3318   6.128   4.411  10.246  0.3999 -0.2981 -0.1581
  626SOL    HW1 3319   6.046   4.369  10.269  0.0161  0.3182 -0.3635
  626SOL    HW2 3320   6.175   4.346  10.194 -0.1096 -0.5293 -0.3335
  627SOL     OW 3321   2.805   5.380   5.092  0.1787 -0.5810  0.5599
  627SOL    HW1 3322   2.718   5.390   5.131  0.1656 -0.8631  0.6079
  627SOL    HW2 3323   2.863   5.432   5.149  0.1482 -0.9406  0.9223
  628SOL     OW 3324   3.019   5.235   0.884 -0.2091  0.1603  0.0788
  628SOL    HW1 3325   3.079   5.190   0.943  1.6533  0.0332 -1.7770
  628SOL    HW2 3326   3.036   5.195   0.798 -1.0916  1.9198 -0.9746
  629SOL     OW 3327   5.816   6.180   7.847  0.3395  0.2065  0.0475
  629SOL    HW1 3328   5.752   6.110   7.855  0.1658  0.2802 -0.6587
  629SOL    HW2 3329   5.776   6.244   7.789  0.7655  0.5863  0.1613
  630SOL     OW 3330   7.400   5.523   9.296  0.1111  0.1470 -0.0556
  630SOL    HW1 3331   7.376   5.441   9.338  0.6778  0.1890  0.3645
  630SOL    HW2 3332   7.416   5.583   9.368  0.0686  0.5209 -0.3536
  631SOL     OW 3333   5.082   4.638   0.550  0.0657  0.0031  0.2798
  631SOL    HW1 3334   4.990   4.611   0.545  0.5583 -1.6897 -0.6382
  631SOL    HW2 3335   5.131   4.560   0.523  1.8467  0.4486  2.0047
  632SOL     OW 3336   3.144   5.387   0.508  0.2742  0.4739  0.2965
  632SOL    HW1 3337   3.193   5.369   0.428 -0.0280 -0.1193  0.2385
  632SOL    HW2 3338   3.054   5.362   0.488  0.2133  0.2273  0.8450
  633SOL     OW 3339   7.496   0.697   8.248  0.4599  0.0093 -0.2207
  633SOL    HW1 3340   7.542   0.613   8.250  0.6961  0.0670 -1.9774
  633SOL    HW2 3341   7.559   0.758   8.209  0.0526  0.8589  0.4193
  634SOL     OW 3342   1.688   6.944  10.242  0.3845  0.3239  0.2531
  634SOL    HW1 3343   1.731   7.007  10.184  1.5066 -0.1248  0.5764
  634SOL    HW2 3344   1.638   6.999  10.303 -0.6008  0.8081 -0.9345
  635SOL     OW 3345   2.492   1.459   4.270  0.7364  0.1306  0.6930
  635SOL    HW1 3346   2.498   1.469   4.365 -0.4297 -2.2770  1.0980
  635SOL    HW2 3347   2.538   1.376   4.252 -0.7896 -0.4844 -0.5514
  636SOL     OW 3348   1.554   1.085   7.254 -0.0692 -0.4816 -0.5717
  636SOL    HW1 3349   1.469   1.128   7.259  0.0740 -0.0670 -1.5697
  636SOL    HW2 3350   1.579   1.092   7.162  1.5748  0.4503 -0.1000
  637SOL     OW 3351   1.014   5.541   4.651 -0.4039  0.0283 -0.1393
  637SOL    HW1 3352   1.031   5.473   4.717 -0.0758 -0.7178 -0.9735
  637SOL    HW2 3353   1.075   5.611   4.674 -1.1503  0.3125  1.0840
  638SOL     OW 3354   7.588   5.032   0.355 -0.1091  0.1183 -0.3118
  638SOL    HW1 3355   7.608   4.938   0.350  0.0664  0.1576 -0.3767
  638SOL    HW2 3356   7.638   5.070   0.283 -1.1474  0.0997 -1.0731
  639SOL     OW 3357   4.002   4.932   0.410 -0.2344 -0.3649  0.8568
  639SOL    HW1 3358   4.024   4.864   0.474  0.6049 -1.5674 -0.6649
  639SOL    HW2 3359   4.060   5.005   0.432 -0.5516 -0.4288  1.9772
  640SOL     OW 3360   5.682   2.002   4.227 -0.2084 -0.0114 -0.0668
  640SOL    HW1 3361   5.699   2.008   4.133  0.2606  1.2735  0.0849
  640SOL    HW2 3362   5.671   2.093   4.256 -0.2820 -0.3807  1.1320
  641SOL     OW 3363   7.598   7.570   6.232  0.0960 -0.4048 -0.2604
  641SOL    HW1 3364   7.655   7.544   6.304 -0.4683 -1.6663 -0.2389
  641SOL    HW2 3365   7.600   7.665   6.232  1.5482 -0.4200  0.2501
  642SOL     OW 3366   7.204   6.677   0.530 -0.5807 -0.1252 -0.3415
  642SOL    HW1 3367   7.115   6.710   0.523 -0.6094  0.1001  0.8615
  642SOL    HW2 3368   7.195   6.582   0.523 -0.8910 -0.0825 -0.5018
  643SOL     OW 3369   3.149   1.044   8.058 -0.0610 -0.1477 -0.5222
  643SOL    HW1 3370   3.147   0.990   8.137  0.5027  1.3633  0.5534
  643SOL    HW2 3371   3.106   0.990   7.992 -0.2863 -1.5651  0.7233
  644SOL     OW 3372   3.576   5.697  11.938 -0.0319 -0.0071  0.3921
  644SOL    HW1 3373   3.589   5.611  11.898 -2.5341 -0.8552  1.2184
  644SOL    HW2 3374   3.653   5.709  11.994  0.8820 -1.1940 -0.5473
  645SOL     OW 3375   1.233   4.687   6.272  0.5025 -0.0177  0.2199
  645SOL    HW1 3376   1.250   4.779   6.250 -0.2499  0.2393  0.6638
  645SOL    HW2 3377   1.221   4.644   6.188  0.5918  0.3498  0.0182
  646SOL     OW 3378   7.612   2.231   6.856  0.2242  0.3316  0.0428
  646SOL    HW1 3379   7.566   2.148   6.871  1.6647 -0.4957  0.1956
  646SOL    HW2 3380   7.549   2.299   6.880 -0.3622 -0.7727  1.8322
  647SOL     OW 3381   1.878   1.185   7.093 -0.3330 -0.0133 -0.4072
  647SOL    HW1 3382   1.818   1.245   7.138 -0.4082 -0.1629 -0.3090
  647SOL    HW2 3383   1.870   1.103   7.141  0.4597  0.1555  0.0228
  648SOL     OW 3384   4.526   6.972   5.885  0.0701  0.0677 -0.3204
  648SOL    HW1 3385   4.592   6.984   5.954 -0.4912 -1.0007  0.4210
  648SOL    HW2 3386   4.575   6.981   5.804  1.3243 -1.5772  0.2126
  649SOL     OW 3387   3.674   2.748   4.875  0.2662 -0.4062  0.8141
  649SOL    HW1 3388   3.738   2.759   4.805 -0.7836  3.1843  0.2137
  649SOL    HW2 3389   3.724   2.760   4.956  0.5996  1.4880  0.3816
  650SOL     OW 3390   7.538   6.337   1.392  0.0495 -0.1838 -0.4117
  650SOL    HW1 3391   7.476   6.362   1.324  0.8217  2.5445 -0.2506
  650SOL    HW2 3392   7.507   6.382   1.471  1.7685  0.6754 -0.1738
  651SOL     OW 3393   7.545   1.381   3.290 -0.1113 -0.5232 -0.0459
  651SOL    HW1 3394   7.452   1.400   3.305 -0.0141 -0.4074  0.4374
  651SOL    HW2 3395   7.588   1.466   3.299  0.2722 -0.8543  1.6410
  652SOL     OW 3396   7.566   4.744  11.688 -0.2452  0.2747 -0.3434
  652SOL    HW1 3397   7.626   4.702  11.749  0.0067  0.1496 -0.6738
  652SOL    HW2 3398   7.566   4.836  11.712  0.0609  0.2695 -0.3263
  653SOL     OW 3399   7.511   5.385   8.022 -0.2245 -0.0208  0.2229
  653SOL    HW1 3400   7.551   5.331   7.954  0.5582  1.1779 -0.3000
  653SOL    HW2 3401   7.544   5.348   8.104  2.9127  1.5347 -0.1888
  654SOL     OW 3402   2.641   2.506   6.948  0.0327 -0.5654 -0.5676
  654SOL    HW1 3403   2.577   2.437   6.931  0.4969 -1.2320  0.3043
  654SOL    HW2 3404   2.669   2.491   7.039  0.5014  0.4746 -0.5259
  655SOL     OW 3405   5.723   3.429   6.724  0.1374  0.1816  0.2973
  655SOL    HW1 3406   5.653   3.397   6.667  0.4057  1.2214 -0.6516
  655SOL    HW2 3407   5.682   3.500   6.774  0.2616  0.1604  0.4290
  656SOL     OW 3408   4.736   2.244   7.696 -0.5818 -0.1787 -0.0841
  656SOL    HW1 3409   4.758   2.192   7.774  1.3775 -0.1944 -0.5995
  656SOL    HW2 3410   4.807   2.307   7.688 -0.9076  0.0247 -1.7063
  657SOL     OW 3411   1.392   7.785  12.130  0.3042 -0.0465 -0.5345
  657SOL    HW1 3412   1.432   7.709  12.088  0.6994  0.5061 -1.1788
  657SOL    HW2 3413   1.298   7.768  12.126  0.4195 -0.8210 -0.0510
  658SOL     OW 3414   3.744   1.571   0.203 -0.2528  0.1297  0.3375
  658SOL    HW1 3415   3.710   1.484   0.182 -1.8265  0.7080  0.3331
  658SOL    HW2 3416   3.687   1.602   0.275  0.5968  0.9529  0.6737
  659SOL     OW 3417   3.734   3.884   9.651 -0.2798  0.8283  0.3513
  659SOL    HW1 3418   3.651   3.837   9.662  0.2145  0.2268  1.6176
  659SOL    HW2 3419   3.723   3.932   9.568 -1.8308  0.6561  0.4262
  660SOL     OW 3420   3.941   7.677  12.295 -0.4603 -0.0932 -0.6443
  660SOL    HW1 3421   3.969   7.768  12.288 -2.6112  0.6792 -0.1652
  660SOL    HW2 3422   3.983   7.632  12.222  2.1786  0.8222  0.2118
  661SOL     OW 3423   1.998   1.286  11.352 -0.0253 -0.1242 -0.1466
  661SOL    HW1 3424   2.044   1.300  11.269  0.7832  1.1483  0.4783
  661SOL    HW2 3425   1.924   1.346  11.349  0.5162  0.5911  0.4052
  662SOL     OW 3426   0.192   6.713   6.135  0.5692  0.0424 -0.0649
  662SOL    HW1 3427   0.211   6.624   6.165  1.8810 -0.1810 -1.4485
  662SOL    HW2 3428   0.276   6.759   6.141  0.8345  0.1069 -2.8555
  663SOL     OW 3429   6.214   7.162  10.756  0.3458 -0.4192 -0.0094
  663SOL    HW1 3430   6.267   7.241  10.748  1.1887 -0.8149  1.3946
  663SOL    HW2 3431   6.234   7.127  10.843 -4.2984  0.8912  1.9091
  664SOL     OW 3432   6.122   1.205  11.580 -0.1550  0.3092 -0.4748
  664SOL    HW1 3433   6.102   1.209  11.674 -0.7031 -1.0154 -0.5056
  664SOL    HW2 3434   6.154   1.292  11.558 -0.2429  0.7095  0.8957
  665SOL     OW 3435   0.290   7.059   2.720  0.0749 -0.2301  0.1248
  665SOL    HW1 3436   0.378   7.047   2.756  0.3309  0.0689 -0.3965
  665SOL    HW2 3437   0.234   7.064   2.797  0.6030  0.2936  0.4875
  666SOL     OW 3438   7.204   4.192   7.173  0.2287 -0.0823 -0.2930
  666SOL    HW1 3439   7.207   4.195   7.077 -1.3682 -1.9917 -0.4485
  666SOL    HW2 3440   7.112   4.183   7.194  0.4627  1.2291  1.5168
  667SOL     OW 3441   7.072   1.320   8.214 -0.4198  0.4805  0.0692
  667SOL    HW1 3442   7.040   1.256   8.150 -1.5290  0.7168  0.3674
  667SOL    HW2 3443   7.026   1.401   8.193  0.7243  1.1060 -0.0934
  668SOL     OW 3444   5.181   3.932   5.601  0.3340 -0.5581  0.1735
  668SOL    HW1 3445   5.171   4.002   5.667  1.3529  1.6690 -1.8767
  668SOL    HW2 3446   5.120   3.864   5.629  0.3223  0.4902  3.0989
  669SOL     OW 3447   4.986   2.517   0.029  0.2384  0.4294 -0.4536
  669SOL    HW1 3448   5.060   2.538   0.086 -0.5109  1.8678  0.0363
  669SOL    HW2 3449   4.985   2.421   0.025 -0.3253  0.1835  2.8449
  670SOL     OW 3450   3.672   2.044   7.044 -0.2369 -0.2731  0.5075
  670SOL    HW1 3451   3.746   2.099   7.068 -0.1412 -0.9034  1.7141
  670SOL    HW2 3452   3.701   1.955   7.061 -1.4412 -0.5026  1.5176
  671SOL     OW 3453   0.006   3.252  10.591  0.1182 -0.1545 -0.0292
  671SOL    HW1 3454   0.040   3.231  10.504 -1.1669 -0.4091 -0.4841
  671SOL    HW2 3455   0.007   3.348  10.594 -0.1616 -0.1353 -0.4626
  672SOL     OW 3456   1.087   6.050   0.409  0.1940 -0.3490 -0.1201
  672SOL    HW1 3457   1.084   6.104   0.488  0.1417  2.2054 -1.7109
  672SOL    HW2 3458   0.997   6.018   0.398  0.0015 -0.0105  0.4229
  673SOL     OW 3459   6.994   6.647   6.674  0.1880  0.3732  0.1109
  673SOL    HW1 3460   6.952   6.565   6.697  0.8475  0.0552  0.2150
  673SOL    HW2 3461   7.027   6.633   6.585  1.4283  0.0498  0.5970
  674SOL     OW 3462   6.769   4.621   4.435  0.1318  0.0109  0.0894
  674SOL    HW1 3463   6.763   4.645   4.342 -2.7375 -1.4554 -0.2132
  674SOL    HW2 3464   6.753   4.703   4.482 -0.8047  0.3638 -0.7932
  675SOL     OW 3465   6.655   2.004   3.598 -0.3184 -0.3108  0.4260
  675SOL    HW1 3466   6.705   2.029   3.520  0.3589  0.2269  1.0171
  675SOL    HW2 3467   6.588   1.944   3.565 -0.7335  0.7349 -0.7463
  676SOL     OW 3468   7.094   3.140  10.891 -0.3317 -0.3596 -0.5360
  676SOL    HW1 3469   7.042   3.062  10.911 -0.0417 -0.1192  1.2599
  676SOL    HW2 3470   7.049   3.212  10.935  0.4794  0.1634 -0.5280
  677SOL     OW 3471   3.002   5.429   8.572  0.3205 -0.3423  0.1214
  677SOL    HW1 3472   3.049   5.513   8.572  0.3215 -0.3357  0.6862
  677SOL    HW2 3473   2.981   5.414   8.665  0.0822 -0.8344 -0.0101
  678SOL     OW 3474   3.906   6.106  11.572 -0.0026 -0.3413 -0.3129
  678SOL    HW1 3475   3.843   6.178  11.577  0.3457  0.0312 -1.0382
  678SOL    HW2 3476   3.927   6.086  11.663  0.0619  0.6379 -0.0996
  679SOL     OW 3477   2.433   6.915   9.599 -0.6207 -0.4072 -0.1408
  679SOL    HW1 3478   2.463   6.990   9.650 -1.5256  0.2569 -0.5515
  679SOL    HW2 3479   2.394   6.856   9.663 -1.5466  0.3188 -0.0122
  680SOL     OW 3480   1.225   4.982   2.426 -0.3588 -0.3526 -0.2222
  680SOL    HW1 3481   1.203   4.894   2.456 -1.4798 -0.1854 -0.4885
  680SOL    HW2 3482   1.213   5.037   2.503 -2.7615  0.0042 -0.7628
  681SOL     OW 3483   1.050   5.669   0.691  0.0278  0.3237  0.5993
  681SOL    HW1 3484   0.964   5.706   0.710  0.6381  0.7631  2.7856
  681SOL    HW2 3485   1.044   5.578   0.721  0.5004  0.5387  1.3712
  682SOL     OW 3486   6.306   3.453   6.385  0.2951 -0.1141  0.3446
  682SOL    HW1 3487   6.302   3.401   6.304 -0.6159  0.5375 -0.0316
  682SOL    HW2 3488   6.217   3.485   6.398  0.4412 -0.1711  1.5947
  683SOL     OW 3489   1.604   1.217   1.955  0.5545  0.0709  0.3200
  683SOL    HW1 3490   1.536   1.282   1.971  0.0709 -0.2331 -0.4526
  683SOL    HW2 3491   1.682   1.268   1.932 -0.1146  0.3858 -1.4118
  684SOL     OW 3492   5.171   3.565   8.067 -1.2314 -0.3433  0.1668
  684SOL    HW1 3493   5.129   3.550   7.982 -1.6242 -2.8292  0.7162
  684SOL    HW2 3494   5.099   3.559   8.130 -0.7027 -0.1121  0.8018
  685SOL     OW 3495   5.534   3.726   2.132 -0.3405 -0.2621 -0.0637
  685SOL    HW1 3496   5.456   3.736   2.078 -0.4457 -1.2000 -0.0908
  685SOL    HW2 3497   5.580   3.650   2.097  0.0313 -0.3721  0.6256
  686SOL     OW 3498   2.396   0.284   4.355 -0.2827  0.1405 -0.0131
  686SOL    HW1 3499   2.429   0.199   4.384 -0.5816 -1.0269 -2.8535
  686SOL    HW2 3500   2.475   0.335   4.338 -0.1026  0.4816  1.6610
  687SOL     OW 3501   7.710   1.415  10.511 -0.0595 -0.1264  0.1613
  687SOL    HW1 3502   7.618   1.393  10.527 -0.2515  0.0129 -0.6873
  687SOL    HW2 3503   7.734   1.363  10.435  0.8690 -0.8985  0.9541
  688SOL     OW 3504   7.650   1.459   8.554  0.5512  0.0061  0.3409
  688SOL    HW1 3505   7.682   1.538   8.597  0.5866 -0.2536  0.8020
  688SOL    HW2 3506   7.582   1.489   8.495  0.9830  0.4551  0.0644
  689SOL     OW 3507   1.063   5.848   8.254  0.3532  0.2567 -0.0658
  689SOL    HW1 3508   1.031   5.891   8.175  0.2993 -0.0507 -0.2145
  689SOL    HW2 3509   0.985   5.839   8.309  0.4269  0.6449  0.1068
  690SOL     OW 3510   0.698   1.069   5.061 -0.8663  0.2551  0.1856
  690SOL    HW1 3511   0.752   1.031   4.992 -2.4876  1.2805 -1.7557
  690SOL    HW2 3512   0.723   1.161   5.064  0.3217 -0.0655  2.1743
  691SOL     OW 3513   6.138   5.127   3.139  0.3503 -0.6160  0.0771
  691SOL    HW1 3514   6.048   5.104   3.163  0.8276 -2.3497  0.3109
  691SOL    HW2 3515   6.147   5.219   3.166 -1.4934 -0.2574 -0.4204
  692SOL     OW 3516   1.866   4.812   2.299 -0.3017  0.0815 -0.0176
  692SOL    HW1 3517   1.818   4.740   2.259  1.3175 -1.3299  0.4411
  692SOL    HW2 3518   1.891   4.779   2.386  1.4182  0.7408 -0.2154
  693SOL     OW 3519   2.972   3.759  11.195 -0.0192 -0.6153 -0.6417
  693SOL    HW1 3520   2.988   3.829  11.132  0.8192 -1.1077 -0.9890
  693SOL    HW2 3521   2.891   3.718  11.165 -1.4498  1.2029  0.4998
  694SOL     OW 3522   3.014   2.459   6.089 -0.0456 -0.3516  0.6792
  694SOL    HW1 3523   3.032   2.442   5.996 -0.6004 -1.1905  0.7130
  694SOL    HW2 3524   2.939   2.520   6.088  0.0534 -0.2308  0.5785
  695SOL     OW 3525   1.123   2.935   7.942  0.2378 -0.0074 -0.2006
  695SOL    HW1 3526   1.119   2.890   7.858  0.7423  0.3671 -0.4306
  695SOL    HW2 3527   1.132   2.864   8.006  0.2992 -0.2728 -0.4981
  696SOL     OW 3528   4.282   7.299   2.293  0.7650  0.3408 -0.2915
  696SOL    HW1 3529   4.327   7.230   2.342  0.0087  0.0810  0.0497
  696SOL    HW2 3530   4.245   7.253   2.217 -0.1491  0.2586  0.1853
  697SOL     OW 3531   5.052   6.345   9.915 -0.4109 -0.1275  0.1593
  697SOL    HW1 3532   4.987   6.291   9.870 -0.3678  0.2735 -0.3976
  697SOL    HW2 3533   5.085   6.405   9.847  0.2696 -0.0756  0.5242
  698SOL     OW 3534   3.010   6.705  10.442  0.4017  0.1901 -0.1038
  698SOL    HW1 3535   2.958   6.624  10.438 -0.4137  0.5790  1.9198
  698SOL    HW2 3536   3.095   6.676  10.475  0.4943 -0.0031 -0.5028
  699SOL     OW 3537   4.332   1.930   3.121 -0.1145 -0.4215  0.2710
  699SOL    HW1 3538   4.265   1.910   3.186 -0.1349 -0.6810  0.1697
  699SOL    HW2 3539   4.365   1.845   3.093  0.8800 -0.2747  0.9548
  700SOL     OW 3540   7.647   6.716   3.388  0.1946 -0.4101  0.0403
  700SOL    HW1 3541   7.642   6.640   3.331 -1.2361 -1.8047  1.8821
  700SOL    HW2 3542   7.740   6.734   3.396  0.6336 -2.5059  0.1957
  701SOL     OW 3543   5.896   0.458   8.495  0.1693 -0.0160 -0.5927
  701SOL    HW1 3544   5.931   0.503   8.418  4.1098 -2.0185 -0.2474
  701SOL    HW2 3545   5.921   0.515   8.568  1.3264 -0.6509 -0.4704
  702SOL     OW 3546   5.802   4.533   3.116  0.7575 -0.1412 -0.1790
  702SOL    HW1 3547   5.889   4.573   3.113  0.7121  0.1715  1.6879
  702SOL    HW2 3548   5.756   4.580   3.186 -1.7419  1.2835 -2.5734
  703SOL     OW 3549   5.173   0.066   9.625  0.0899  0.3276 -0.3194
  703SOL    HW1 3550   5.219   0.042   9.706  0.6230  0.1409 -0.6686
  703SOL    HW2 3551   5.205   0.155   9.606  1.3287 -0.2932 -1.2617
  704SOL     OW 3552   5.954   3.624   8.526  0.1875 -0.6220  0.1258
  704SOL    HW1 3553   5.985   3.617   8.616  0.5764  0.0224  0.0512
  704SOL    HW2 3554   5.872   3.673   8.533 -0.0223 -0.9810  0.1750
  705SOL     OW 3555   6.792   7.776   1.424 -0.4230 -0.3431 -0.3172
  705SOL    HW1 3556   6.775   7.694   1.471 -0.4294  0.0218  0.3359
  705SOL    HW2 3557   6.868   7.812   1.468 -0.2980 -0.0949 -0.7378
  706SOL     OW 3558   1.010   4.023   3.579  0.2062 -0.3295  0.6823
  706SOL    HW1 3559   1.082   4.085   3.565 -2.2301  2.6551  0.2837
  706SOL    HW2 3560   0.954   4.034   3.502 -1.3186 -1.6099  1.5612
  707SOL     OW 3561   5.904   7.336  12.323 -0.2107  0.2434  0.1661
  707SOL    HW1 3562   5.861   7.376  12.247 -0.1745  2.1991  1.1237
  707SOL    HW2 3563   5.846   7.355  12.396  0.3781 -0.5283  0.8566
  708SOL     OW 3564   4.340   0.689  10.594  0.3505 -0.3290  0.0852
  708SOL    HW1 3565   4.374   0.761  10.646 -0.5374  0.1796 -0.0244
  708SOL    HW2 3566   4.312   0.729  10.512  2.1674 -1.1816 -1.0196
  709SOL     OW 3567   3.340   1.080   3.086  0.0077  0.8279 -0.3320
  709SOL    HW1 3568   3.410   1.079   3.151  1.1591 -2.5444 -1.4249
  709SOL    HW2 3569   3.260   1.087   3.138  0.9904  0.9381  1.2496
  710SOL     OW 3570   6.195   0.250   6.002  0.1112  0.1425  0.3486
  710SOL    HW1 3571   6.194   0.279   6.093  1.7888  0.1136  0.4194
  710SOL    HW2 3572   6.235   0.163   6.006  1.2647  0.6015 -0.4973
  711SOL     OW 3573   0.776   4.819   2.150  0.3971  0.4965  0.0735
  711SOL    HW1 3574   0.806   4.872   2.224  1.0950  2.2207 -1.3778
  711SOL    HW2 3575   0.855   4.775   2.119  0.5316  1.3455 -0.8418
  712SOL     OW 3576   2.964   1.287   8.572 -0.3369  0.4335 -0.1102
  712SOL    HW1 3577   3.003   1.199   8.574 -0.5525  0.3180 -0.8528
  712SOL    HW2 3578   3.027   1.340   8.524  0.3713  0.9831  1.3782
  713SOL     OW 3579   7.921   2.729   2.924  0.6564  0.2746 -0.5424
  713SOL    HW1 3580   7.979   2.707   2.998  0.0593  1.8552  0.4490
  713SOL    HW2 3581   7.857   2.658   2.922  0.2546  0.5580  0.9452
  714SOL     OW 3582   6.595   5.510   6.712  0.2979  0.5102 -0.2314
  714SOL    HW1 3583   6.664   5.454   6.746  0.5655  0.5733 -0.6649
  714SOL    HW2 3584   6.570   5.470   6.629 -1.9037 -0.9388  1.0020
  715SOL     OW 3585   3.546   1.335   4.319 -0.3132 -0.1147  0.4213
  715SOL    HW1 3586   3.462   1.364   4.281  0.2434 -0.7398 -1.3904
  715SOL    HW2 3587   3.541   1.240   4.317  1.0270 -0.2002 -1.2131
  716SOL     OW 3588   3.396   4.088  10.599 -0.2536 -0.2593  0.1430
  716SOL    HW1 3589   3.488   4.111  10.616 -0.2113  0.2859 -0.7505
  716SOL    HW2 3590   3.350   4.112  10.679  0.7123 -2.6845  1.5290
  717SOL     OW 3591   1.069   7.721   2.230  0.0473  0.1511  0.2493
  717SOL    HW1 3592   1.161   7.696   2.244 -0.2617 -0.9642  0.3826
  717SOL    HW2 3593   1.019   7.648   2.266 -0.8727 -0.1693 -1.5856
  718SOL     OW 3594   2.021   6.939   5.918  0.8673 -0.2219  0.0551
  718SOL    HW1 3595   2.015   6.962   6.010 -0.5038  1.2637 -0.3586
  718SOL    HW2 3596   1.931   6.938   5.887  1.3121 -0.5164 -1.3196
  719SOL     OW 3597   2.781   0.064  10.342  0.6701 -0.2609  0.0108
  719SOL    HW1 3598   2.786   0.154  10.373 -1.1337  0.3297 -1.2249
  719SOL    HW2 3599   2.861   0.052  10.291 -0.5068  1.8805 -2.6269
  720SOL     OW 3600   3.324   7.886   3.918 -0.3598 -0.3561 -0.2723
  720SOL    HW1 3601   3.246   7.904   3.865  0.0032 -1.8049 -1.3811
  720SOL    HW2 3602   3.299   7.812   3.973  0.2177 -0.8203 -0.6280
  721SOL     OW 3603   6.340   1.821   2.680  0.1871  0.2275 -0.5192
  721SOL    HW1 3604   6.416   1.763   2.687 -0.3495 -0.3122  2.0895
  721SOL    HW2 3605   6.343   1.855   2.591  2.0027 -1.7915 -1.3084
  722SOL     OW 3606   5.448   7.435   3.517  0.1255  0.3490  0.0054
  722SOL    HW1 3607   5.542   7.442   3.533  0.1311 -1.4700  1.0378
  722SOL    HW2 3608   5.441   7.376   3.442 -0.1911  1.0158 -0.4995
  723SOL     OW 3609   2.602   2.037   7.795  0.2163  0.3321 -0.2997
  723SOL    HW1 3610   2.594   2.061   7.702 -2.2179  0.6460 -0.0545
  723SOL    HW2 3611   2.592   1.942   7.796 -1.2269  0.4732 -0.2417
  724SOL     OW 3612   5.219   5.876   4.110 -0.2093 -0.0345 -0.8622
  724SOL    HW1 3613   5.214   5.902   4.202  0.6508 -0.6590 -0.6331
  724SOL    HW2 3614   5.213   5.781   4.111  0.4723 -0.0922 -1.3878
  725SOL     OW 3615   4.703   6.080  12.104  0.1001 -0.3614 -0.4790
  725SOL    HW1 3616   4.763   6.035  12.164  0.3683  0.2307 -0.2966
  725SOL    HW2 3617   4.620   6.084  12.151  0.3191  0.1325 -0.1207
  726SOL     OW 3618   7.108   1.232  12.062 -0.1777 -0.2169 -0.0309
  726SOL    HW1 3619   7.049   1.184  12.003 -1.2433  0.5268  0.4074
  726SOL    HW2 3620   7.051   1.290  12.111  0.8616  0.0931  0.8439
  727SOL     OW 3621   2.596   1.546   9.921  0.2829 -0.4667 -0.0656
  727SOL    HW1 3622   2.611   1.479   9.854 -2.1219 -1.1083 -0.0585
  727SOL    HW2 3623   2.511   1.523   9.959 -0.5927  2.5211  0.0074
  728SOL     OW 3624   1.268   6.323   9.230 -0.4754  0.0509 -0.1596
  728SOL    HW1 3625   1.241   6.232   9.220 -0.0056  0.0036 -1.0583
  728SOL    HW2 3626   1.355   6.318   9.271  0.3540  0.0078 -1.8533
  729SOL     OW 3627   4.359   0.683   0.830 -0.3569 -0.0295  0.7086
  729SOL    HW1 3628   4.313   0.603   0.803 -0.8596  0.5810 -0.2911
  729SOL    HW2 3629   4.417   0.654   0.901  0.6286 -1.6002 -0.6621
  730SOL     OW 3630   7.951   2.926   8.455  0.0683  0.5616 -0.5304
  730SOL    HW1 3631   7.988   2.913   8.367  1.1035  1.7204 -0.2874
  730SOL    HW2 3632   7.972   3.016   8.477 -0.4015  0.3624  0.8197
  731SOL     OW 3633   4.601   0.840   7.361 -0.6501  0.2602  0.0829
  731SOL    HW1 3634   4.637   0.851   7.274  0.9224 -2.3776  0.2736
  731SOL    HW2 3635   4.655   0.895   7.418  0.9864 -1.0774 -0.1108
  732SOL     OW 3636   0.070   5.074   3.324  0.3628 -0.6008 -0.5213
  732SOL    HW1 3637   0.045   4.981   3.325  0.9962 -0.7772 -0.4578
  732SOL    HW2 3638   0.140   5.079   3.259 -0.8302  0.1602 -1.7818
  733SOL     OW 3639   1.639   5.783   8.544  0.5450  0.3969 -0.0617
  733SOL    HW1 3640   1.685   5.844   8.487  1.2665 -0.2991 -0.2596
  733SOL    HW2 3641   1.548   5.810   8.541  1.0293  2.3854  1.0546
  734SOL     OW 3642   4.173   6.570   6.632  0.0757  0.0683  0.0071
  734SOL    HW1 3643   4.176   6.508   6.705 -1.0187 -0.0548 -0.0313
  734SOL    HW2 3644   4.133   6.521   6.561  2.0359 -0.1254 -1.0279
  735SOL     OW 3645   6.979   4.105   7.921 -0.3886 -0.1002  0.3171
  735SOL    HW1 3646   6.949   4.195   7.915 -0.8060 -0.3281 -1.3112
  735SOL    HW2 3647   6.906   4.058   7.962  0.0074  0.3528  1.5917
  736SOL     OW 3648   7.880   3.839   0.761 -0.8528  0.0267  0.9128
  736SOL    HW1 3649   7.970   3.851   0.790 -1.2657  0.9797  1.8787
  736SOL    HW2 3650   7.885   3.840   0.666 -0.0049  1.4480  0.9450
  737SOL     OW 3651   5.118   2.572   9.047 -0.2262  0.3679 -0.1491
  737SOL    HW1 3652   5.148   2.604   9.133  2.7760 -1.2967 -0.4443
  737SOL    HW2 3653   5.055   2.504   9.068  0.1628  0.2635  0.7344
  738SOL     OW 3654   7.422   1.366   7.781  0.0546  0.0827  0.0693
  738SOL    HW1 3655   7.383   1.361   7.868  0.8891  0.6127  0.4834
  738SOL    HW2 3656   7.352   1.400   7.726 -1.3119 -2.6471 -0.0358
  739SOL     OW 3657   6.123   7.472  10.191 -0.2428 -0.4804  0.1993
  739SOL    HW1 3658   6.192   7.407  10.206  0.6139  0.1525 -0.8419
  739SOL    HW2 3659   6.046   7.419  10.169 -0.0858 -1.1940  1.2516
  740SOL     OW 3660   0.581   3.946   3.327  0.4321 -0.3028  0.0261
  740SOL    HW1 3661   0.612   3.943   3.237  0.2508 -0.5881 -0.0293
  740SOL    HW2 3662   0.537   3.862   3.340  0.8538 -0.4524  0.5208
  741SOL     OW 3663   3.908   5.123   2.033  0.2092  0.1678  0.0623
  741SOL    HW1 3664   3.956   5.094   2.110  0.2076  0.2810  0.1056
  741SOL    HW2 3665   3.824   5.077   2.039  0.5770 -0.5920 -0.3912
  742SOL     OW 3666   3.339   7.895   7.269 -0.3782  0.2129  0.0396
  742SOL    HW1 3667   3.279   7.964   7.297  1.5057  2.7407 -1.6749
  742SOL    HW2 3668   3.313   7.876   7.178  1.8166  2.0429 -1.0778
  743SOL     OW 3669   4.275   0.911   4.219  1.0296  0.1331 -0.0312
  743SOL    HW1 3670   4.285   0.848   4.148  0.5250 -0.9945  0.8652
  743SOL    HW2 3671   4.296   0.862   4.298 -2.1454  0.2194  0.9921
  744SOL     OW 3672   4.880   5.306   7.629  0.0164 -0.1669  0.3086
  744SOL    HW1 3673   4.838   5.220   7.631  0.3420 -0.4821 -2.4344
  744SOL    HW2 3674   4.851   5.345   7.546  1.5350  1.4787  0.4927
  745SOL     OW 3675   6.693   0.101   1.391  0.0252 -0.9237  0.0060
  745SOL    HW1 3676   6.685   0.007   1.408 -0.0810 -1.2007 -1.4321
  745SOL    HW2 3677   6.787   0.118   1.394  0.0101 -0.9451  0.8498
  746SOL     OW 3678   5.578   0.749   3.851 -0.3840  0.3219  0.4066
  746SOL    HW1 3679   5.575   0.771   3.758 -0.6795 -0.4948  0.2165
  746SOL    HW2 3680   5.552   0.830   3.895 -0.7890  0.5549 -0.2451
  747SOL     OW 3681   7.224   3.542  11.821 -0.0675  0.5958  0.7209
  747SOL    HW1 3682   7.139   3.551  11.778  0.4715 -0.6843 -0.6956
  747SOL    HW2 3683   7.273   3.481  11.765  1.2527  0.1377  2.3064
  748SOL     OW 3684   7.924   3.144   9.103  0.1704  0.0398  0.3766
  748SOL    HW1 3685   8.011   3.184   9.099 -0.3956  1.3220  0.4064
  748SOL    HW2 3686   7.880   3.189   9.175 -0.2766 -1.1163  0.8387
  749SOL     OW 3687   1.560   3.348   4.772 -0.1524  0.1461 -0.3286
  749SOL    HW1 3688   1.565   3.269   4.826  0.5436  0.2265 -0.2642
  749SOL    HW2 3689   1.632   3.403   4.803  0.1891  0.2435 -1.2567
  750SOL     OW 3690   1.338   2.488   1.401  0.3874 -0.6165 -0.7549
  750SOL    HW1 3691   1.317   2.493   1.307 -0.7352  1.2564 -0.4465
  750SOL    HW2 3692   1.270   2.539   1.443  0.1063 -2.5140  1.2466
  751SOL     OW 3693   3.706   0.962   6.848 -0.2898 -0.4313  0.6129
  751SOL    HW1 3694   3.697   1.057   6.851  0.2662 -0.3932  1.4199
  751SOL    HW2 3695   3.781   0.943   6.905 -1.2141 -1.4589  1.5352
  752SOL     OW 3696   2.228   1.382   6.585 -0.6381  0.7894  0.4264
  752SOL    HW1 3697   2.287   1.317   6.546 -1.3496  0.1474  0.3892
  752SOL    HW2 3698   2.270   1.408   6.666 -0.2848  0.3648  0.3793
  753SOL     OW 3699   6.159   1.195   9.651  0.0915  0.5514 -0.2970
  753SOL    HW1 3700   6.248   1.179   9.621 -0.7266 -1.7057 -1.8033
  753SOL    HW2 3701   6.104   1.175   9.575 -1.8663 -1.4373  1.4852
  754SOL     OW 3702   3.871   2.454   1.682 -0.7320 -0.1265  0.4843
  754SOL    HW1 3703   3.791   2.442   1.631  0.7021 -1.1723 -1.6350
  754SOL    HW2 3704   3.863   2.542   1.719 -2.9559 -0.3175  0.5712
  755SOL     OW 3705   1.161   0.166   9.420  0.6122  0.2486  0.4487
  755SOL    HW1 3706   1.167   0.258   9.395  0.8033 -0.1554 -1.1258
  755SOL    HW2 3707   1.136   0.121   9.339 -0.1457 -1.0122  1.3408
  756SOL     OW 3708   4.204   2.145   9.363 -0.2848  0.0364  0.0297
  756SOL    HW1 3709   4.128   2.095   9.332  1.2381 -1.4263 -1.5435
  756SOL    HW2 3710   4.208   2.126   9.457 -0.7644 -1.4158 -0.2187
  757SOL     OW 3711   6.593   2.474   8.702  0.3175 -0.1507 -0.2112
  757SOL    HW1 3712   6.647   2.551   8.717  1.1585 -0.8294  0.2923
  757SOL    HW2 3713   6.526   2.504   8.640  0.3468  1.0985  0.3379
  758SOL     OW 3714   3.088   1.458   2.752 -0.2466 -0.6771  0.8372
  758SOL    HW1 3715   3.026   1.439   2.681 -1.8377 -0.8868  2.2435
  758SOL    HW2 3716   3.129   1.373   2.771  0.4777 -0.5493 -0.0495
  759SOL     OW 3717   4.529   1.171   1.958  0.6213 -0.1130 -0.2301
  759SOL    HW1 3718   4.539   1.179   1.863  2.0722 -0.9219 -0.1704
  759SOL    HW2 3719   4.467   1.240   1.981  0.0684 -0.0484 -1.7912
  760SOL     OW 3720   1.306   7.446   0.005  0.1004 -0.2200 -0.3603
  760SOL    HW1 3721   1.339   7.488   0.084 -0.2206 -1.0857  0.2473
  760SOL    HW2 3722   1.382   7.440  -0.052  0.4231  0.0663  0.0272
  761SOL     OW 3723   1.696   4.592   2.241  0.0639  0.1422  0.3228
  761SOL    HW1 3724   1.626   4.528   2.233 -0.3918  0.7934 -1.1315
  761SOL    HW2 3725   1.774   4.548   2.208 -0.2135  0.2739 -0.5147
  762SOL     OW 3726   5.137   0.487   6.005 -0.0737  0.0845 -0.0544
  762SOL    HW1 3727   5.210   0.464   5.948 -1.5238 -2.3519 -1.0715
  762SOL    HW2 3728   5.066   0.512   5.946 -0.8886 -0.1899  0.7757
  763SOL     OW 3729   4.012   0.772  11.764  0.2321  0.2481  0.1529
  763SOL    HW1 3730   3.971   0.845  11.717  2.2173  0.4369 -1.4459
  763SOL    HW2 3731   4.085   0.813  11.812  0.2564 -0.4404  0.7147
  764SOL     OW 3732   7.480   1.048   2.050 -0.2015 -0.1578 -0.4977
  764SOL    HW1 3733   7.413   1.092   2.102  0.6138 -0.8301  1.1980
  764SOL    HW2 3734   7.560   1.098   2.068 -0.1049  0.2798 -2.0286
  765SOL     OW 3735   2.474   7.873   5.283 -0.3720  0.1960  0.0208
  765SOL    HW1 3736   2.542   7.940   5.271 -2.5379  2.7572  0.9655
  765SOL    HW2 3737   2.409   7.894   5.216 -1.6545 -0.1776  1.1046
  766SOL     OW 3738   1.657   3.650   2.354 -0.5962 -0.0558  0.2986
  766SOL    HW1 3739   1.748   3.635   2.331 -0.2420  1.4635  0.5686
  766SOL    HW2 3740   1.609   3.635   2.273 -0.3038 -2.1190  0.4434
  767SOL     OW 3741   4.726   6.541  12.184  0.3086 -0.0616  0.4595
  767SOL    HW1 3742   4.658   6.539  12.116  0.2283 -0.6052  0.5485
  767SOL    HW2 3743   4.773   6.623  12.169  1.2108 -0.8022 -1.1808
  768SOL     OW 3744   5.078   4.593   6.205 -0.7472 -0.5787 -0.4021
  768SOL    HW1 3745   5.013   4.634   6.261 -0.0296 -0.2758  0.2172
  768SOL    HW2 3746   5.027   4.536   6.147 -1.5154 -0.7230  0.3980
  769SOL     OW 3747   2.249   2.448   2.678  0.5161 -0.3805  0.2832
  769SOL    HW1 3748   2.307   2.404   2.740 -0.2123 -0.1756  1.1268
  769SOL    HW2 3749   2.301   2.456   2.598  0.7815 -2.4785  0.1931
  770SOL     OW 3750   2.193   0.444   4.465 -0.3483  0.7659 -0.1442
  770SOL    HW1 3751   2.263   0.395   4.424 -1.2983  0.0806 -1.0087
  770SOL    HW2 3752   2.220   0.535   4.460  0.1462  0.5774 -1.1331
  771SOL     OW 3753   6.325   4.235   9.140  0.0143 -0.0153 -0.3395
  771SOL    HW1 3754   6.235   4.202   9.139  0.0537 -0.2581 -3.1048
  771SOL    HW2 3755   6.322   4.315   9.087  1.0957  1.1264  1.2137
  772SOL     OW 3756   7.866   4.363   8.776  0.1536 -0.3250  0.3057
  772SOL    HW1 3757   7.918   4.286   8.797 -0.2312 -0.5385  0.4993
  772SOL    HW2 3758   7.868   4.368   8.680  0.6089 -0.2710  0.3181
  773SOL     OW 3759   0.019   2.070   0.805 -0.3651  0.1775 -0.2440
  773SOL    HW1 3760   0.113   2.060   0.788 -0.0131  3.1660 -0.7572
  773SOL    HW2 3761   0.001   2.012   0.878  1.9886 -0.1964  0.1159
  774SOL     OW 3762   1.633   5.134   1.962 -0.8352  0.0056  0.0062
  774SOL    HW1 3763   1.547   5.168   1.936 -0.7257  0.7224  0.5479
  774SOL    HW2 3764   1.677   5.208   2.002 -0.0856 -0.4485  0.0348
  775SOL     OW 3765   7.876   1.338  12.073 -0.3342 -0.2282 -0.0528
  775SOL    HW1 3766   7.796   1.374  12.036 -0.2037  1.7577  1.4175
  775SOL    HW2 3767   7.846   1.275  12.138 -0.5736 -2.4611 -2.1884
  776SOL     OW 3768   1.401   0.369   8.390 -0.3282  0.4400 -0.4120
  776SOL    HW1 3769   1.482   0.387   8.342  0.3318  2.1312  1.1762
  776SOL    HW2 3770   1.392   0.444   8.450 -1.9600 -0.7359  0.9153
  777SOL     OW 3771   7.672   1.115   9.688 -0.4364 -0.2536  0.2458
  777SOL    HW1 3772   7.588   1.105   9.732 -0.5101  1.7831  0.6969
  777SOL    HW2 3773   7.736   1.119   9.760 -0.0840 -0.7538 -0.0376
  778SOL     OW 3774   2.167   0.787  10.172  0.3902  0.7137  0.0974
  778SOL    HW1 3775   2.208   0.849  10.112 -0.8389  0.6562 -0.8282
  778SOL    HW2 3776   2.129   0.842  10.241 -0.8776  1.0436 -0.8281
  779SOL     OW 3777   2.172   7.741   4.078 -0.4539 -0.2146  0.4783
  779SOL    HW1 3778   2.174   7.666   4.137 -1.0315  0.2420  1.0767
  779SOL    HW2 3779   2.261   7.777   4.082 -0.7517  0.4192  1.8604
  780SOL     OW 3780   6.355   7.879   6.693 -0.3273  0.2556 -0.5218
  780SOL    HW1 3781   6.351   7.821   6.769  4.6269 -0.4384 -0.4823
  780SOL    HW2 3782   6.356   7.967   6.730  3.6686 -0.0926  0.6471
  781SOL     OW 3783   1.203   3.931  10.374  0.4835  0.0799 -0.0860
  781SOL    HW1 3784   1.156   4.008  10.343  1.0491  0.2861 -0.4457
  781SOL    HW2 3785   1.294   3.946  10.349  1.0672  0.4407  2.0359
  782SOL     OW 3786   5.664   5.512  10.491 -0.0471  0.0238 -0.1431
  782SOL    HW1 3787   5.697   5.579  10.432  0.2262  0.1969  0.1982
  782SOL    HW2 3788   5.743   5.478  10.534 -0.1968 -0.4187 -0.2125
  783SOL     OW 3789   4.320   4.237  10.136 -0.0717 -0.2703 -0.1038
  783SOL    HW1 3790   4.396   4.197  10.178  0.2897  0.6391  0.1226
  783SOL    HW2 3791   4.311   4.322  10.179 -2.0431 -0.8934  0.8353
  784SOL     OW 3792   6.199   7.648   2.537 -0.6673  0.3090 -0.4231
  784SOL    HW1 3793   6.105   7.664   2.545 -1.0127 -0.7036 -1.9753
  784SOL    HW2 3794   6.218   7.662   2.444  0.3746 -1.1537 -0.4616
  785SOL     OW 3795   4.006   6.330   1.571 -0.0516 -0.4815 -0.0777
  785SOL    HW1 3796   3.946   6.273   1.618 -1.4344  0.9004 -0.0897
  785SOL    HW2 3797   3.964   6.345   1.486  1.9143 -2.1124 -1.4221
  786SOL     OW 3798   2.193   6.758   9.274  0.3488  0.4764 -0.0189
  786SOL    HW1 3799   2.157   6.838   9.233  1.0713  0.5380 -0.5453
  786SOL    HW2 3800   2.277   6.745   9.230 -0.5404 -1.5875 -1.2450
  787SOL     OW 3801   6.659   6.052   5.526 -0.1313  0.4086  0.4645
  787SOL    HW1 3802   6.569   6.060   5.497  0.7915  0.6411 -2.7367
  787SOL    HW2 3803   6.711   6.051   5.445  2.6601 -0.9544  2.0880
  788SOL     OW 3804   7.766   0.664   7.126 -0.4362 -0.6042 -0.1038
  788SOL    HW1 3805   7.842   0.635   7.175 -0.0117 -3.9426 -2.3853
  788SOL    HW2 3806   7.693   0.612   7.161 -0.4089 -1.9090 -1.8372
  789SOL     OW 3807   5.258   1.081   5.484 -0.5686 -0.4901 -0.1628
  789SOL    HW1 3808   5.266   1.014   5.551  0.6596 -1.3275 -1.1229
  789SOL    HW2 3809   5.347   1.107   5.464 -0.5974 -2.4444 -3.5939
  790SOL     OW 3810   1.946   7.853   0.271  1.0685 -0.2185  0.0960
  790SOL    HW1 3811   1.957   7.928   0.213  0.3469 -0.9775 -1.0745
  790SOL    HW2 3812   1.989   7.781   0.225 -0.5961 -1.1177 -0.1320
  791SOL     OW 3813   6.597   7.638   5.303 -0.4008 -0.0531 -0.2122
  791SOL    HW1 3814   6.663   7.571   5.286 -0.7571 -0.2950 -0.6776
  791SOL    HW2 3815   6.642   7.704   5.356  1.4362  1.7720 -3.7163
  792SOL     OW 3816   1.228   1.648   0.216  0.0836  0.3151  0.0589
  792SOL    HW1 3817   1.160   1.684   0.159  0.4590  0.4440 -0.3146
  792SOL    HW2 3818   1.310   1.682   0.180  0.4761 -1.1608 -0.4847
  793SOL     OW 3819   5.986   3.075  11.838 -0.1113  0.8634 -0.1362
  793SOL    HW1 3820   6.006   3.095  11.929 -0.0533  1.6850 -0.3164
  793SOL    HW2 3821   5.954   3.158  11.802 -1.2317  0.2761 -0.5622
  794SOL     OW 3822   5.321   4.767   2.010 -0.1122  0.2176 -0.1790
  794SOL    HW1 3823   5.274   4.691   2.042 -0.5456  0.2860 -0.6410
  794SOL    HW2 3824   5.272   4.842   2.045  0.0273  0.2855 -0.1275
  795SOL     OW 3825   4.351   6.829  10.531  0.2659  0.5769  0.6723
  795SOL    HW1 3826   4.390   6.792  10.452  0.0286 -1.8621  1.6082
  795SOL    HW2 3827   4.412   6.897  10.559  2.4510 -1.2017  0.5319
  796SOL     OW 3828   5.822   4.150   6.972  0.4103  0.1394 -0.6556
  796SOL    HW1 3829   5.896   4.158   6.912 -0.2824 -1.6071 -1.8253
  796SOL    HW2 3830   5.779   4.236   6.969  0.9479  0.3848 -1.9215
  797SOL     OW 3831   4.083   2.701   7.612 -0.6844 -0.1886  0.3087
  797SOL    HW1 3832   4.084   2.753   7.532 -0.3466  1.0503  1.0786
  797SOL    HW2 3833   4.163   2.649   7.607  0.5788  1.5664  0.8349
  798SOL     OW 3834   6.748   3.865   6.370  0.4634  0.1812  0.6238
  798SOL    HW1 3835   6.832   3.887   6.409  0.3207  0.8148  0.5898
  798SOL    HW2 3836   6.757   3.891   6.278  1.2848 -2.5507 -0.1804
  799SOL     OW 3837   3.043   1.807   1.496 -0.6142 -0.0586 -0.4525
  799SOL    HW1 3838   2.986   1.883   1.486 -1.7198 -0.9156 -0.8182
  799SOL    HW2 3839   3.113   1.837   1.553 -0.0361  1.7752 -2.0296
  800SOL     OW 3840   1.314   5.658   7.948 -0.0623  0.7482  0.1802
  800SOL    HW1 3841   1.298   5.662   8.043 -1.4839  1.0636 -0.0641
  800SOL    HW2 3842   1.409   5.666   7.941  0.0151  1.4400  1.5518
  801SOL     OW 3843   7.164   6.464   6.148  0.1558 -0.0412 -0.2801
  801SOL    HW1 3844   7.086   6.499   6.191 -0.5367 -2.6649  0.8397
  801SOL    HW2 3845   7.232   6.465   6.216  1.5768  3.3080 -1.5663
  802SOL     OW 3846   1.445   5.837   4.521  0.1689 -0.6983 -0.1847
  802SOL    HW1 3847   1.485   5.914   4.560 -1.2597 -0.1064  0.1635
  802SOL    HW2 3848   1.476   5.837   4.430 -0.6660  0.9339 -0.5103
  803SOL     OW 3849   1.152   0.650  12.257 -0.2717 -0.9505  0.2384
  803SOL    HW1 3850   1.159   0.600  12.338 -3.4562 -0.4755  0.9653
  803SOL    HW2 3851   1.148   0.742  12.285  1.2394 -0.5617 -0.7157
  804SOL     OW 3852   1.072   0.898  11.020  0.5536  0.0457  0.2274
  804SOL    HW1 3853   1.108   0.983  10.994 -1.0526  0.4161 -0.8682
  804SOL    HW2 3854   1.141   0.835  10.997  0.6880  0.7713 -1.4458
  805SOL     OW 3855   4.713   7.828   8.145  0.5369 -0.0749  0.0938
  805SOL    HW1 3856   4.789   7.809   8.091  0.0678  0.2938 -0.7181
  805SOL    HW2 3857   4.689   7.918   8.124  0.5225  0.1812  1.1518
  806SOL     OW 3858   6.332   4.205   8.692  0.1338 -0.5635  0.3034
  806SOL    HW1 3859   6.421   4.237   8.677  0.2957 -0.8164  0.7216
  806SOL    HW2 3860   6.278   4.284   8.689  0.1485 -0.5812 -1.5950
  807SOL     OW 3861   5.380   0.234  10.363  0.3434  0.0371 -0.2251
  807SOL    HW1 3862   5.289   0.204  10.375  0.0051  0.4193 -1.6147
  807SOL    HW2 3863   5.428   0.154  10.341  1.2110 -0.8899  4.2253
  808SOL     OW 3864   7.012   4.403   8.165  0.3281  0.4685  0.0449
  808SOL    HW1 3865   6.986   4.353   8.242 -0.3112  2.7819  1.4373
  808SOL    HW2 3866   7.103   4.376   8.149 -0.0357 -1.2130  0.5951
  809SOL     OW 3867   5.636   1.031   5.395 -0.6451  0.3609 -0.1887
  809SOL    HW1 3868   5.583   1.041   5.474 -1.1263  0.1323 -0.4823
  809SOL    HW2 3869   5.623   0.941   5.367 -0.6243  0.4932 -0.6365
  810SOL     OW 3870   6.436   0.676  11.475  0.0527 -0.2596 -0.5043
  810SOL    HW1 3871   6.489   0.747  11.510 -0.6993  1.1158 -2.0354
  810SOL    HW2 3872   6.499   0.611  11.445  0.7472 -0.3147  0.9933
  811SOL     OW 3873   1.324   1.703   9.722 -0.6479 -0.0181  0.5666
  811SOL    HW1 3874   1.399   1.760   9.706  0.3982 -1.3600  0.4350
  811SOL    HW2 3875   1.301   1.718   9.813 -2.1523  2.5586 -0.1597
  812SOL     OW 3876   4.871   7.330   5.261  0.3186 -0.1976 -0.3887
  812SOL    HW1 3877   4.874   7.237   5.239 -1.7795 -0.4795  0.2585
  812SOL    HW2 3878   4.794   7.363   5.215 -0.4210  0.6164  1.3301
  813SOL     OW 3879   3.551   3.086   1.413 -0.6366  0.0219  0.5062
  813SOL    HW1 3880   3.598   3.082   1.497  1.0009 -1.6728 -0.4059
  813SOL    HW2 3881   3.579   3.007   1.367 -0.8364  1.3238 -2.0013
  814SOL     OW 3882   4.047   3.160  11.517 -0.3087  0.0911  0.2278
  814SOL    HW1 3883   3.967   3.123  11.554  0.1555 -0.6439  0.5068
  814SOL    HW2 3884   4.115   3.095  11.535  1.0502  2.0365  2.8139
  815SOL     OW 3885   0.151   3.222   2.184  0.2194  0.1842 -0.4291
  815SOL    HW1 3886   0.195   3.292   2.135  0.4214 -0.0800 -0.6299
  815SOL    HW2 3887   0.222   3.168   2.217  0.1156  0.7450  0.7606
  816SOL     OW 3888   1.688   6.512   1.375 -0.4105 -0.0342 -0.1105
  816SOL    HW1 3889   1.670   6.423   1.344 -1.2940  0.3142 -0.6443
  816SOL    HW2 3890   1.653   6.568   1.306 -2.7653  0.7952  1.6101
  817SOL     OW 3891   2.264   6.416   3.148 -0.0977  0.4411 -0.0137
  817SOL    HW1 3892   2.315   6.490   3.180  0.4493  0.2402 -0.4163
  817SOL    HW2 3893   2.203   6.397   3.220 -0.7857  1.7721 -0.2005
  818SOL     OW 3894   6.873   6.538   7.716 -0.5163 -0.3905 -0.4799
  818SOL    HW1 3895   6.823   6.483   7.776  0.3771  0.0584  0.7235
  818SOL    HW2 3896   6.926   6.477   7.666  0.1674 -0.6731  0.5653
  819SOL     OW 3897   4.307   4.429   1.832 -0.2155 -1.2343  0.2358
  819SOL    HW1 3898   4.291   4.398   1.921  1.9075  0.2193  1.1830
  819SOL    HW2 3899   4.327   4.521   1.842 -0.7711 -0.8264 -1.8890
  820SOL     OW 3900   4.535   2.920   2.874  0.3811 -0.4448  0.4316
  820SOL    HW1 3901   4.492   2.943   2.956  0.9126 -1.0648  0.8885
  820SOL    HW2 3902   4.609   2.981   2.869  1.0510 -1.2010  1.0149
  821SOL     OW 3903   3.508   6.010  10.317  0.0806  0.9361  0.3063
  821SOL    HW1 3904   3.565   6.024  10.392  1.0107  0.9903 -0.3901
  821SOL    HW2 3905   3.535   6.076  10.253  1.0862 -0.7216 -1.0807
  822SOL     OW 3906   1.218   5.375   2.226 -0.3742 -0.1494  0.2367
  822SOL    HW1 3907   1.208   5.410   2.314 -1.6489  0.6295 -0.1901
  822SOL    HW2 3908   1.143   5.316   2.215  0.1125 -0.7208 -0.1167
  823SOL     OW 3909   4.693   4.027   8.344  0.1391 -0.3434 -0.0638
  823SOL    HW1 3910   4.732   4.049   8.260  0.5775  0.7145  0.3961
  823SOL    HW2 3911   4.670   4.111   8.383 -0.3124 -0.8292  0.7487
  824SOL     OW 3912   0.782   0.082   1.955  0.1475 -0.6050 -0.5570
  824SOL    HW1 3913   0.819  -0.006   1.952  0.3873 -0.5751  0.8910
  824SOL    HW2 3914   0.800   0.118   1.869  1.4345 -1.4222 -0.6649
  825SOL     OW 3915   7.774   1.322   3.849  0.3221  0.1579  0.4118
  825SOL    HW1 3916   7.806   1.251   3.905 -1.3041  0.6204  2.0059
  825SOL    HW2 3917   7.817   1.401   3.883  0.1234  0.3058  0.3216
  826SOL     OW 3918   1.356   1.361   4.200 -0.3270 -0.0122 -0.3114
  826SOL    HW1 3919   1.341   1.396   4.288 -2.8199  1.3309 -1.1675
  826SOL    HW2 3920   1.302   1.282   4.195  0.3858 -0.5050 -0.4257
  827SOL     OW 3921   2.243   4.729   6.507 -0.2012 -0.2945  0.7992
  827SOL    HW1 3922   2.292   4.668   6.562 -0.5864 -0.7846  0.6073
  827SOL    HW2 3923   2.243   4.688   6.420 -1.3369 -0.5365  0.8965
  828SOL     OW 3924   4.596   5.472   9.600  0.1347  0.7647  0.5885
  828SOL    HW1 3925   4.596   5.391   9.651  2.0228 -0.5388 -1.2681
  828SOL    HW2 3926   4.513   5.472   9.553 -0.1803  0.2628  1.1430
  829SOL     OW 3927   3.573   5.020   3.134 -0.2956  0.3493  0.6003
  829SOL    HW1 3928   3.660   5.009   3.096 -1.0095 -1.2058 -0.6956
  829SOL    HW2 3929   3.574   5.109   3.171  1.3449  0.9055 -0.6544
  830SOL     OW 3930   2.741   3.501   6.595 -0.3772 -0.8151  0.0208
  830SOL    HW1 3931   2.798   3.459   6.659  0.1696  1.1242  0.8848
  830SOL    HW2 3932   2.680   3.552   6.648 -0.4035  0.2222 -0.9792
  831SOL     OW 3933   0.851   6.755  12.068 -0.4540 -0.1808 -0.3129
  831SOL    HW1 3934   0.884   6.739  12.157 -0.2779  0.1199 -0.3227
  831SOL    HW2 3935   0.760   6.783  12.081 -0.3995 -0.0436 -0.2198
  832SOL     OW 3936   1.489   5.910   7.561  0.0235 -0.2779 -0.3546
  832SOL    HW1 3937   1.474   5.948   7.647 -0.0017  1.1981 -0.9810
  832SOL    HW2 3938   1.584   5.916   7.548  0.0941 -0.9966 -0.2232
  833SOL     OW 3939   1.488   3.336   7.424  0.2330  0.4383 -0.1282
  833SOL    HW1 3940   1.527   3.423   7.423 -0.4636  0.7556 -0.0388
  833SOL    HW2 3941   1.435   3.332   7.345  0.7937 -0.1598 -0.4863
  834SOL     OW 3942   3.371   7.840   5.164  0.1961 -0.2293 -0.0917
  834SOL    HW1 3943   3.371   7.746   5.179 -0.7236 -0.2255 -0.0154
  834SOL    HW2 3944   3.356   7.879   5.250  1.6851  0.0459  0.0741
  835SOL     OW 3945   7.745   7.407   1.882  0.2660  0.1081  0.7831
  835SOL    HW1 3946   7.817   7.405   1.945 -0.2552  1.1732  1.4456
  835SOL    HW2 3947   7.759   7.488   1.833 -0.6392  0.4721  1.1141
  836SOL     OW 3948   7.917   0.884   1.721 -0.2715  0.7291  0.1232
  836SOL    HW1 3949   7.893   0.800   1.681  0.6594  0.6133 -0.2193
  836SOL    HW2 3950   7.892   0.875   1.813 -2.9143  1.1741 -0.4721
  837SOL     OW 3951   5.981   5.339   7.586  0.1072 -0.0039  0.8425
  837SOL    HW1 3952   5.941   5.324   7.672 -1.1009  0.2758  0.3421
  837SOL    HW2 3953   5.929   5.408   7.547  1.1281  0.4150  0.1753
  838SOL     OW 3954   7.268   6.994   6.286 -0.2464 -0.0561  0.4438
  838SOL    HW1 3955   7.173   6.992   6.290 -0.2572  0.8814  1.2817
  838SOL    HW2 3956   7.295   6.998   6.378  0.6306 -1.1287  0.2418
  839SOL     OW 3957   0.989   2.850   2.124 -0.1406  0.1749  0.4903
  839SOL    HW1 3958   0.909   2.818   2.081 -0.2756 -1.4014  1.8078
  839SOL    HW2 3959   0.969   2.844   2.218  1.4913 -0.1872  0.8419
  840SOL     OW 3960   4.472   2.722   7.451  0.2866 -0.7113 -0.1599
  840SOL    HW1 3961   4.465   2.818   7.456 -1.0020 -0.8205  0.4946
  840SOL    HW2 3962   4.441   2.700   7.363  2.0912 -0.4385 -0.9110
  841SOL     OW 3963   3.663   4.218   1.292 -0.7106 -0.0605 -0.1256
  841SOL    HW1 3964   3.651   4.272   1.215 -2.0772 -0.4113 -0.1753
  841SOL    HW2 3965   3.666   4.279   1.365  1.5416  0.3560 -0.4981
  842SOL     OW 3966   3.348   6.410   9.014  0.7795  0.2883 -0.6821
  842SOL    HW1 3967   3.336   6.360   8.934  0.7256 -0.4764 -0.2075
  842SOL    HW2 3968   3.437   6.389   9.042  0.7284  0.3902 -0.4410
  843SOL     OW 3969   6.768   3.109  10.281 -0.0424  0.3395 -0.2914
  843SOL    HW1 3970   6.724   3.124  10.365  0.9129 -0.6695  0.4232
  843SOL    HW2 3971   6.715   3.042  10.238  0.7680 -0.9316  0.6018
  844SOL     OW 3972   7.684   4.761   6.973  0.0560 -0.0788 -0.5564
  844SOL    HW1 3973   7.707   4.776   6.881  1.4472  1.6185  0.0124
  844SOL    HW2 3974   7.707   4.843   7.017 -0.4287 -0.9122  1.3471
  845SOL     OW 3975   0.355   5.677   3.740 -0.3407 -0.2641  0.0744
  845SOL    HW1 3976   0.385   5.643   3.825 -0.7013 -0.7386  0.0181
  845SOL    HW2 3977   0.433   5.677   3.685 -0.0729  0.1810  0.4483
  846SOL     OW 3978   6.874   2.134   5.913  0.2262 -0.7081  0.5018
  846SOL    HW1 3979   6.849   2.129   5.821 -0.7782  3.8385  0.2855
  846SOL    HW2 3980   6.968   2.151   5.912 -0.1616  1.7639  0.0369
  847SOL     OW 3981   7.583   5.735  11.745 -0.3246 -0.2692 -0.3876
  847SOL    HW1 3982   7.647   5.685  11.694 -0.5200 -1.4844  0.5308
  847SOL    HW2 3983   7.525   5.774  11.679  0.5419 -0.2510 -1.1684
  848SOL     OW 3984   4.741   6.571   5.366  0.1160  0.0216  0.1793
  848SOL    HW1 3985   4.763   6.660   5.394  2.0080 -0.0759 -0.8385
  848SOL    HW2 3986   4.649   6.576   5.341  0.1302  1.6571  0.3370
  849SOL     OW 3987   1.418   6.419   4.007 -0.1157 -0.1381  0.2530
  849SOL    HW1 3988   1.491   6.357   4.018  0.4367  0.8004  2.6508
  849SOL    HW2 3989   1.360   6.399   4.081 -1.5721  0.1289 -0.7769
  850SOL     OW 3990   0.938   6.174   3.806 -0.3847 -0.0503 -0.0210
  850SOL    HW1 3991   0.949   6.199   3.898  0.3299 -0.2258 -0.0512
  850SOL    HW2 3992   0.952   6.255   3.757 -0.0815 -0.0897 -0.0056
  851SOL     OW 3993   4.346   1.184   1.001 -0.1302 -0.3525  0.1753
  851SOL    HW1 3994   4.315   1.118   1.063 -0.2143 -2.1621 -1.7123
  851SOL    HW2 3995   4.434   1.206   1.032  0.3696 -2.2277  0.2244
  852SOL     OW 3996   2.457   0.977   3.810  0.5855  0.2284 -0.6009
  852SOL    HW1 3997   2.378   0.948   3.855  1.8528 -0.4105  1.3306
  852SOL    HW2 3998   2.480   0.903   3.753  1.1870 -0.7139  0.7953
  853SOL     OW 3999   5.609   0.224   4.057  0.4172 -0.2025  0.0624
  853SOL    HW1 4000   5.606   0.181   4.143  1.3853 -1.9236 -0.7110
  853SOL    HW2 4001   5.517   0.231   4.031  0.2201 -1.8748  0.2128
  854SOL     OW 4002   3.372   0.043   2.320 -0.0814 -0.2782  0.4767
  854SOL    HW1 4003   3.435   0.062   2.251  0.5258  0.1465  1.1275
  854SOL    HW2 4004   3.425   0.036   2.400 -0.7441 -0.9442  0.8718
  855SOL     OW 4005   2.769   0.799   6.782  0.2751  0.4177  0.1206
  855SOL    HW1 4006   2.749   0.736   6.851 -0.3770  0.7732  0.2586
  855SOL    HW2 4007   2.864   0.812   6.788  0.0577  1.4074  1.7775
  856SOL     OW 4008   2.710   0.676   7.367 -0.5888 -0.4682 -0.4276
  856SOL    HW1 4009   2.621   0.661   7.398 -1.3744 -0.0761 -2.3429
  856SOL    HW2 4010   2.725   0.769   7.380  0.0585 -0.7487  1.0615
  857SOL     OW 4011   1.471   7.263   8.617 -0.0133 -0.1447  0.2798
  857SOL    HW1 4012   1.476   7.190   8.555 -1.4448 -0.9176  1.0307
  857SOL    HW2 4013   1.557   7.305   8.610  0.1859 -0.7324 -1.5635
  858SOL     OW 4014   5.605   1.651   6.751 -0.5241 -0.3607  0.1517
  858SOL    HW1 4015   5.553   1.686   6.824  0.6826 -0.3997  1.0603
  858SOL    HW2 4016   5.570   1.694   6.673 -0.0444  1.7754  1.0628
  859SOL     OW 4017   3.301   5.348   0.284  0.4199 -0.0770 -0.3137
  859SOL    HW1 4018   3.332   5.333   0.195  0.4520 -0.7380 -0.1996
  859SOL    HW2 4019   3.361   5.413   0.320 -0.9049  1.8912 -1.4807
  860SOL     OW 4020   7.119   7.238   2.496  0.7608  0.3312 -0.5299
  860SOL    HW1 4021   7.132   7.313   2.555  1.5701  1.4408 -2.0441
  860SOL    HW2 4022   7.114   7.162   2.554  1.6679  1.3527  0.9492
  861SOL     OW 4023   0.829   5.731   5.438 -0.6958  0.1194  0.9135
  861SOL    HW1 4024   0.757   5.691   5.488 -0.7322 -2.6937 -1.1321
  861SOL    HW2 4025   0.795   5.737   5.349  1.5482 -1.3501 -0.1317
  862SOL     OW 4026   1.301   4.581   4.751  0.8902  0.7619 -0.1213
  862SOL    HW1 4027   1.289   4.674   4.733 -0.6808  0.1917 -2.3028
  862SOL    HW2 4028   1.213   4.544   4.747  1.4747 -0.8260  0.8926
  863SOL     OW 4029   2.699   3.965  10.585 -0.4568  0.8804  0.3115
  863SOL    HW1 4030   2.749   3.890  10.552  1.5257  1.0897  2.6166
  863SOL    HW2 4031   2.708   4.031  10.516 -0.2213 -0.1691 -0.6989
  864SOL     OW 4032   6.079   1.139   7.453 -0.0893  0.1726  0.1056
  864SOL    HW1 4033   6.083   1.145   7.548 -0.0632  0.7751  0.0666
  864SOL    HW2 4034   5.989   1.113   7.434  0.1273 -0.7707  0.3332
  865SOL     OW 4035   7.107   5.425   5.612  0.5837  0.2821  0.3003
  865SOL    HW1 4036   7.198   5.398   5.599 -0.3272 -2.3096 -1.4145
  865SOL    HW2 4037   7.075   5.370   5.684 -0.2752 -0.6319 -0.7456
  866SOL     OW 4038   1.482   1.850   3.440 -0.1248  0.1502  0.0242
  866SOL    HW1 4039   1.467   1.799   3.520 -0.0971 -0.0588 -0.1030
  866SOL    HW2 4040   1.403   1.902   3.430 -0.4671 -0.4050 -0.2420
  867SOL     OW 4041   7.635   6.798  11.316 -0.3324 -0.9179 -0.7433
  867SOL    HW1 4042   7.652   6.848  11.396  0.2546 -0.2758 -1.2580
  867SOL    HW2 4043   7.562   6.844  11.274 -0.5626 -1.1834 -0.6332
  868SOL     OW 4044   5.878   3.292  11.713  0.2303  0.2170  0.6817
  868SOL    HW1 4045   5.875   3.295  11.618  0.1593 -0.2768  0.6666
  868SOL    HW2 4046   5.833   3.371  11.741 -1.4523 -0.5683  0.3148
  869SOL     OW 4047   4.472   5.257   3.637  0.2533 -0.0118  0.3500
  869SOL    HW1 4048   4.550   5.209   3.609 -0.0814 -1.2114  1.3871
  869SOL    HW2 4049   4.403   5.191   3.642 -0.3847  0.6903  1.1766
  870SOL     OW 4050   2.696   2.586   7.635  0.1101 -0.0876 -0.2306
  870SOL    HW1 4051   2.650   2.629   7.707 -0.1082 -0.9446  0.1546
  870SOL    HW2 4052   2.707   2.496   7.664  0.4279 -0.3354 -1.0852
  871SOL     OW 4053   4.128   5.453   6.027  0.3232  0.0931  0.4370
  871SOL    HW1 4054   4.149   5.437   6.119 -0.8901  1.1281  0.9095
  871SOL    HW2 4055   4.051   5.399   6.010  0.1886  0.3626  0.1891
  872SOL     OW 4056   4.564   2.683   4.774 -0.1513 -0.9147  0.1461
  872SOL    HW1 4057   4.505   2.758   4.775  0.5691 -0.3127 -0.8391
  872SOL    HW2 4058   4.517   2.617   4.723  0.2106 -0.2462 -1.1119
  873SOL     OW 4059   0.609   6.767   7.231 -0.3542 -0.0037 -0.7382
  873SOL    HW1 4060   0.591   6.675   7.214 -0.2412 -0.0111 -0.8235
  873SOL    HW2 4061   0.681   6.766   7.295 -0.2197  0.0257 -0.8893
  874SOL     OW 4062   7.331   6.198   4.689 -0.3579 -0.0383  0.4445
  874SOL    HW1 4063   7.261   6.236   4.742  0.0464  1.7155 -0.1977
  874SOL    HW2 4064   7.370   6.131   4.745 -1.4107  0.1862  1.4802
  875SOL     OW 4065   6.095   1.156   3.174 -0.0442 -0.7020 -0.0504
  875SOL    HW1 4066   6.170   1.106   3.144 -0.4186 -1.0398 -0.4454
  875SOL    HW2 4067   6.020   1.097   3.162 -0.7700  0.5509 -2.2736
  876SOL     OW 4068   3.051   1.311  10.692 -0.3279 -0.1845 -0.0247
  876SOL    HW1 4069   2.977   1.256  10.720  0.0314 -0.1183  1.1114
  876SOL    HW2 4070   3.014   1.398  10.683 -0.7161 -0.4320 -1.0110
  877SOL     OW 4071   1.976   6.387   2.165 -0.0611 -0.4720  0.0625
  877SOL    HW1 4072   1.885   6.385   2.197 -0.6038  2.8751 -0.8457
  877SOL    HW2 4073   2.024   6.331   2.226 -2.1479  0.4392  2.7624
  878SOL     OW 4074   1.806   3.493   5.356 -0.2197 -0.3219 -0.2504
  878SOL    HW1 4075   1.811   3.584   5.387  1.4730 -0.2408 -0.6787
  878SOL    HW2 4076   1.829   3.441   5.433  1.6140 -0.2293 -0.6978
  879SOL     OW 4077   4.839   7.239   8.548 -0.2082  0.1731  0.2834
  879SOL    HW1 4078   4.777   7.275   8.485  0.4873  2.0366  0.6090
  879SOL    HW2 4079   4.809   7.272   8.633  0.5499  0.1166  0.5791
  880SOL     OW 4080   7.923   1.952  10.823  0.3049  0.6336 -0.0094
  880SOL    HW1 4081   7.858   1.967  10.892 -0.2305  1.7528 -0.7197
  880SOL    HW2 4082   7.983   2.027  10.830  1.0231  0.0623  0.0846
  881SOL     OW 4083   6.982   4.481   1.611  0.5906 -0.0750  0.2103
  881SOL    HW1 4084   7.008   4.566   1.577  1.9105 -0.6074 -0.1871
  881SOL    HW2 4085   7.064   4.431   1.616 -0.0864 -1.1617  0.8719
  882SOL     OW 4086   6.528   7.087   7.907 -0.3979  0.3376  0.2831
  882SOL    HW1 4087   6.607   7.047   7.871 -0.6051  1.3814 -1.4702
  882SOL    HW2 4088   6.457   7.055   7.850 -0.9475  0.9633  0.5973
  883SOL     OW 4089   3.935   4.570   9.610  0.1243 -0.1673  0.0305
  883SOL    HW1 4090   3.944   4.599   9.519  1.1428 -2.0069 -0.5090
  883SOL    HW2 4091   3.921   4.475   9.604 -0.2107 -0.2669  1.7786
  884SOL     OW 4092   3.798   6.679   3.602 -0.7905  0.0513 -0.3663
  884SOL    HW1 4093   3.778   6.588   3.578  1.7321 -0.6250 -0.1862
  884SOL    HW2 4094   3.862   6.707   3.537 -0.3335  1.1383  0.5337
  885SOL     OW 4095   6.363   6.727  10.556 -0.6418  0.1693 -0.2862
  885SOL    HW1 4096   6.378   6.642  10.599 -1.0612 -0.2621 -0.9681
  885SOL    HW2 4097   6.377   6.710  10.463  0.9659  1.2668 -0.2802
  886SOL     OW 4098   7.796   1.063   6.012 -0.1670 -0.5070 -0.2877
  886SOL    HW1 4099   7.719   1.014   6.040  0.0389 -0.5323  0.2314
  886SOL    HW2 4100   7.820   1.024   5.927 -3.1089  2.0941 -2.5562
  887SOL     OW 4101   5.797   7.414   6.469 -0.4959  0.2203  0.3302
  887SOL    HW1 4102   5.701   7.410   6.466 -0.5402  1.1102  0.4195
  887SOL    HW2 4103   5.819   7.383   6.556 -0.6402 -0.8783 -0.0032
  888SOL     OW 4104   2.465   4.993   2.191 -0.0092 -0.3216 -0.1921
  888SOL    HW1 4105   2.542   4.937   2.200  0.4969  0.5085  1.0646
  888SOL    HW2 4106   2.441   5.015   2.282 -1.6239 -0.4053 -0.5670
  889SOL     OW 4107   5.213   4.097   1.148  0.9045  0.4942  0.5637
  889SOL    HW1 4108   5.152   4.154   1.100  0.3175 -0.2609  0.3907
  889SOL    HW2 4109   5.262   4.051   1.080 -0.9138 -1.6410  0.5907
  890SOL     OW 4110   7.696   5.157   1.111  0.7462 -0.1559  0.2929
  890SOL    HW1 4111   7.604   5.145   1.136  0.7352  0.5754  0.6451
  890SOL    HW2 4112   7.745   5.131   1.189  0.7856  0.4644  0.4817
  891SOL     OW 4113   7.050   3.815   9.864 -0.7496  0.4612  0.1018
  891SOL    HW1 4114   6.988   3.824   9.791 -0.5753 -0.2791 -0.1482
  891SOL    HW2 4115   7.122   3.764   9.828 -1.1526 -0.8468  1.0646
  892SOL     OW 4116   7.663   7.557   9.897 -0.6226  0.1560 -0.6868
  892SOL    HW1 4117   7.722   7.577   9.824 -1.0122  2.4380 -0.4335
  892SOL    HW2 4118   7.598   7.627   9.895 -0.4836  0.4641  2.0191
  893SOL     OW 4119   5.741   7.101   6.668 -0.0025  0.1974 -0.4132
  893SOL    HW1 4120   5.819   7.157   6.666 -0.1033  0.5823  2.6375
  893SOL    HW2 4121   5.679   7.149   6.723 -1.6631 -1.0470 -1.1409
  894SOL     OW 4122   6.835   1.179   2.160  0.1200 -0.2997 -0.2705
  894SOL    HW1 4123   6.867   1.230   2.085 -0.0171 -0.4978 -0.4654
  894SOL    HW2 4124   6.842   1.088   2.131  1.0820 -0.4400  0.3546
  895SOL     OW 4125   6.240   5.005  11.336 -0.8876  0.4353  0.4253
  895SOL    HW1 4126   6.294   5.057  11.276  1.0111 -0.2227  1.4800
  895SOL    HW2 4127   6.263   5.038  11.423 -1.1898 -0.7838  0.9836
  896SOL     OW 4128   6.567   0.156   0.331  0.2026  0.4164  0.1568
  896SOL    HW1 4129   6.610   0.079   0.294  0.0813  1.0285 -1.2831
  896SOL    HW2 4130   6.484   0.163   0.284  0.1210  1.3170  0.4156
  897SOL     OW 4131   7.855   0.932   8.814  0.1062  0.1801 -0.4022
  897SOL    HW1 4132   7.877   0.852   8.863 -0.0571 -0.8374 -1.9143
  897SOL    HW2 4133   7.797   0.980   8.873  0.9272 -0.3762  0.9037
  898SOL     OW 4134   3.669   1.928   4.631 -0.2821 -0.5196 -0.4479
  898SOL    HW1 4135   3.670   2.023   4.615  0.1038 -0.3300  0.6671
  898SOL    HW2 4136   3.577   1.905   4.636 -0.3748  0.1164  1.0517
  899SOL     OW 4137   5.209   3.224   6.450  0.1455 -0.8010  0.2111
  899SOL    HW1 4138   5.158   3.269   6.517  0.0931 -0.9002  0.2375
  899SOL    HW2 4139   5.235   3.294   6.390  1.1372 -0.5192  0.9289
  900SOL     OW 4140   4.456   1.058  11.585 -0.4424  0.2860 -0.0554
  900SOL    HW1 4141   4.373   1.080  11.543 -1.1753 -0.9250  0.7041
  900SOL    HW2 4142   4.448   0.966  11.609  1.3645 -0.0258 -0.4819
  901SOL     OW 4143   6.161   6.911   3.928  0.2454  0.1333  0.5126
  901SOL    HW1 4144   6.136   6.957   3.848  0.4729  1.9122  1.4299
  901SOL    HW2 4145   6.245   6.870   3.906  0.7023  1.2705  0.0723
  902SOL     OW 4146   4.852   4.835   4.712 -0.9096 -0.2527  0.0139
  902SOL    HW1 4147   4.761   4.859   4.695 -1.1197 -0.9079  0.2027
  902SOL    HW2 4148   4.871   4.765   4.650 -0.7660 -0.6357  0.4871
  903SOL     OW 4149   3.437   1.521  11.584 -0.1517 -0.1739 -0.4677
  903SOL    HW1 4150   3.441   1.437  11.629 -0.0020  0.2021  0.2456
  903SOL    HW2 4151   3.407   1.500  11.496 -0.6250 -0.9156 -0.1440
  904SOL     OW 4152   7.141   4.690   7.032 -0.1076 -0.0113 -0.1485
  904SOL    HW1 4153   7.137   4.595   7.018 -3.2217  0.1149 -0.8845
  904SOL    HW2 4154   7.049   4.717   7.039  0.7133  2.8404  1.0790
  905SOL     OW 4155   3.823   7.534   8.280  0.1285 -0.2423  0.0688
  905SOL    HW1 4156   3.880   7.458   8.273 -0.4654 -0.6151 -0.7696
  905SOL    HW2 4157   3.742   7.509   8.237 -0.6470  0.3269  1.1388
  906SOL     OW 4158   5.119   7.448   9.233 -0.0879  0.9695  0.4860
  906SOL    HW1 4159   5.055   7.502   9.278 -1.3495  0.8131 -1.0148
  906SOL    HW2 4160   5.144   7.498   9.155 -0.7621 -0.2615 -0.5697
  907SOL     OW 4161   7.433   1.783   2.861 -0.1587  0.1336 -0.2277
  907SOL    HW1 4162   7.452   1.847   2.792 -0.0522 -0.2613 -0.5677
  907SOL    HW2 4163   7.385   1.833   2.928  2.0074  1.1816  0.6503
  908SOL     OW 4164   6.751   0.917   0.254 -0.4500  0.3082  0.3796
  908SOL    HW1 4165   6.775   1.007   0.274  0.3749 -0.3530  2.7852
  908SOL    HW2 4166   6.714   0.883   0.336 -2.1266 -1.1314 -0.8846
  909SOL     OW 4167   2.734   5.898   1.574  0.0107 -0.3436  0.1477
  909SOL    HW1 4168   2.654   5.944   1.602 -0.0606  0.9713 -1.9998
  909SOL    HW2 4169   2.771   5.954   1.506  1.7066 -1.9246 -0.2940
  910SOL     OW 4170   5.249   6.673   1.433  0.8188 -0.0691  0.3963
  910SOL    HW1 4171   5.210   6.649   1.348  0.6591  0.4705  0.3135
  910SOL    HW2 4172   5.323   6.729   1.410  0.3194  0.7012  0.6399
  911SOL     OW 4173   3.258   1.722   9.112 -0.0428 -0.2090 -0.2985
  911SOL    HW1 4174   3.173   1.765   9.109  0.1699  0.2438 -0.0705
  911SOL    HW2 4175   3.241   1.632   9.084 -0.8738 -0.5760  1.2563
  912SOL     OW 4176   4.332   1.928   6.511  0.0082 -0.1085  0.0710
  912SOL    HW1 4177   4.249   1.942   6.464  1.4722  1.6117 -2.2032
  912SOL    HW2 4178   4.390   1.888   6.447  1.0833 -0.9748  1.5187
  913SOL     OW 4179   6.803   6.489   5.423 -0.1400 -0.0710 -0.2387
  913SOL    HW1 4180   6.874   6.552   5.412 -0.7469  0.3264 -2.6250
  913SOL    HW2 4181   6.725   6.542   5.436 -0.2744 -0.4296  0.4457
  914SOL     OW 4182   6.187   1.639   2.139 -0.4180 -0.2990  0.4458
  914SOL    HW1 4183   6.197   1.615   2.046  0.7858  1.2129  0.1389
  914SOL    HW2 4184   6.269   1.610   2.180 -0.1177  0.7487  0.6189
  915SOL     OW 4185   1.107   3.740   4.205  0.4809  0.1435  0.2154
  915SOL    HW1 4186   1.181   3.771   4.154  0.3853  0.4356  0.2507
  915SOL    HW2 4187   1.030   3.764   4.154  0.4371 -1.0712 -0.3150
  916SOL     OW 4188   6.003   1.906   1.563 -0.0414 -0.3738 -0.1093
  916SOL    HW1 4189   6.061   1.887   1.637  0.2989  0.0860 -0.2485
  916SOL    HW2 4190   5.917   1.921   1.603  0.2903  0.5852  0.2710
  917SOL     OW 4191   4.319   2.612   5.514 -0.1047 -0.6891  0.0842
  917SOL    HW1 4192   4.225   2.603   5.533 -0.4032  0.7251 -0.6274
  917SOL    HW2 4193   4.360   2.545   5.569 -1.5394 -1.5017  0.2370
  918SOL     OW 4194   1.097   0.044   9.201  0.1607  0.0283 -0.5292
  918SOL    HW1 4195   1.112  -0.050   9.191 -0.4291 -0.2084  0.6468
  918SOL    HW2 4196   1.131   0.083   9.120  1.4656 -1.0704 -0.5380
  919SOL     OW 4197   4.378   0.305   2.474 -0.3267  0.1461  0.0533
  919SOL    HW1 4198   4.331   0.222   2.484 -0.2353  0.1101  0.1855
  919SOL    HW2 4199   4.397   0.310   2.380 -1.1254  0.4536 -0.0948
  920SOL     OW 4200   3.972   2.628  12.039  0.1706  0.1770 -0.1395
  920SOL    HW1 4201   3.915   2.563  11.998 -0.2404  0.9449 -0.8229
  920SOL    HW2 4202   4.049   2.579  12.067  0.4492 -0.4009 -1.7915
  921SOL     OW 4203   3.587   5.841   8.352 -0.2599 -0.3891  0.5447
  921SOL    HW1 4204   3.609   5.784   8.426 -0.8253  0.6643  1.5564
  921SOL    HW2 4205   3.630   5.924   8.373  1.3061 -0.6590 -1.3418
  922SOL     OW 4206   6.975   7.237   7.300  0.2880 -0.1168 -0.5691
  922SOL    HW1 4207   7.039   7.230   7.370 -1.4431  1.3370  1.2744
  922SOL    HW2 4208   6.962   7.331   7.288  0.5772 -0.3118 -2.9490
  923SOL     OW 4209   5.791   6.466   6.167  0.0585  0.2320  0.0264
  923SOL    HW1 4210   5.827   6.490   6.081 -1.2739 -0.0961 -0.6556
  923SOL    HW2 4211   5.699   6.492   6.162  0.0979  0.7804  1.6006
  924SOL     OW 4212   0.803   3.638   6.254  0.1872 -0.8052 -0.6205
  924SOL    HW1 4213   0.782   3.551   6.288  0.0810 -0.4310  0.3055
  924SOL    HW2 4214   0.856   3.678   6.323 -0.2993  0.0893 -0.7485
  925SOL     OW 4215   5.175   5.275   9.046  0.2126 -0.5150  0.1661
  925SOL    HW1 4216   5.179   5.196   9.100 -0.7115  0.5294  1.8699
  925SOL    HW2 4217   5.082   5.288   9.029  0.3629  0.1543 -0.1759
  926SOL     OW 4218   3.449   4.529  10.249 -0.2523 -0.3247 -0.3268
  926SOL    HW1 4219   3.404   4.526  10.334 -0.2017 -0.2489 -0.2973
  926SOL    HW2 4220   3.468   4.622  10.236 -1.9576 -0.0619 -1.3152
  927SOL     OW 4221   0.086   3.984  11.251 -0.4578 -0.7998 -0.5827
  927SOL    HW1 4222  -0.009   3.981  11.244 -0.5728  0.1182  0.3967
  927SOL    HW2 4223   0.117   3.983  11.160 -1.4833  0.8954 -0.9892
  928SOL     OW 4224   5.538   1.655   3.904  0.0919 -0.2356  0.4552
  928SOL    HW1 4225   5.498   1.742   3.911 -0.2216 -0.3499  0.0626
  928SOL    HW2 4226   5.494   1.603   3.972 -1.1632 -0.6426 -0.6441
  929SOL     OW 4227   5.323   3.951   7.328  0.0838  0.5370  0.3777
  929SOL    HW1 4228   5.379   4.028   7.319 -1.0035  1.2681 -0.4151
  929SOL    HW2 4229   5.330   3.927   7.421  0.0378  1.9099  0.7542
  930SOL     OW 4230   4.653   6.165   9.710 -0.3546  0.7044 -0.8627
  930SOL    HW1 4231   4.558   6.151   9.715 -0.2485 -0.2233 -1.1383
  930SOL    HW2 4232   4.670   6.176   9.617  0.0872 -1.5422 -1.0999
  931SOL     OW 4233   0.393   5.410   4.347  0.2375 -0.3467 -0.2436
  931SOL    HW1 4234   0.480   5.386   4.379  0.1666 -0.1377  0.1159
  931SOL    HW2 4235   0.334   5.385   4.418 -0.1241 -1.4728 -0.9172
  932SOL     OW 4236   3.575   4.662   6.885 -0.1840 -0.0427  0.5873
  932SOL    HW1 4237   3.637   4.720   6.929  0.4436  0.1653 -0.5535
  932SOL    HW2 4238   3.490   4.686   6.922  0.4316 -0.7329  2.6023
  933SOL     OW 4239   3.722   5.989   8.046  0.3677 -0.6108 -0.5783
  933SOL    HW1 4240   3.640   5.985   8.094 -0.4521 -0.5538 -1.9269
  933SOL    HW2 4241   3.787   6.017   8.111 -0.6999 -0.4903  0.4603
  934SOL     OW 4242   2.864   0.592   1.714 -0.3035  0.6092 -0.5682
  934SOL    HW1 4243   2.809   0.580   1.791  1.5412 -0.7373  0.6514
  934SOL    HW2 4244   2.861   0.507   1.669  0.3311  0.6916 -0.7771
  935SOL     OW 4245   2.003   6.400   7.309  0.1478  0.2735  0.4777
  935SOL    HW1 4246   2.031   6.343   7.381 -0.7189 -0.3426  0.3489
  935SOL    HW2 4247   1.933   6.351   7.266 -0.7320  1.5100  0.4452
  936SOL     OW 4248   7.490   3.304   6.998  0.4544 -0.1317  0.0934
  936SOL    HW1 4249   7.542   3.375   7.036 -1.5326  0.9969  0.8616
  936SOL    HW2 4250   7.405   3.311   7.042 -0.0479 -2.5343 -0.3620
  937SOL     OW 4251   1.786   4.210   0.324  0.0592 -0.3816  0.1537
  937SOL    HW1 4252   1.843   4.287   0.327 -0.3215 -0.1216  0.8240
  937SOL    HW2 4253   1.839   4.139   0.358  0.0008 -0.1529  0.7213
  938SOL     OW 4254   5.760   6.174  11.208  0.0844  0.1203 -0.1708
  938SOL    HW1 4255   5.719   6.105  11.259 -0.9310  1.5158  0.9832
  938SOL    HW2 4256   5.807   6.128  11.138 -2.0323 -1.6260 -0.5319
  939SOL     OW 4257   2.051   6.166   0.450 -0.7099  0.1008  0.8815
  939SOL    HW1 4258   2.144   6.189   0.449 -0.5115 -0.6678  0.9826
  939SOL    HW2 4259   2.041   6.109   0.526 -1.4379  0.8459  1.3626
  940SOL     OW 4260   5.145   4.217   9.072 -0.5629 -0.6799 -0.5946
  940SOL    HW1 4261   5.221   4.276   9.071 -0.1130 -1.2160  0.4791
  940SOL    HW2 4262   5.164   4.154   9.002 -0.1365 -0.6685 -0.4945
  941SOL     OW 4263   0.610   3.587   1.747 -0.0906 -0.1352 -0.0181
  941SOL    HW1 4264   0.647   3.525   1.685 -2.0701 -3.2062  1.6633
  941SOL    HW2 4265   0.683   3.610   1.804  0.6739 -0.9453 -0.6467
  942SOL     OW 4266   2.244   1.490   0.417  0.4089 -0.2382  0.1803
  942SOL    HW1 4267   2.161   1.446   0.396  0.5003 -0.1700 -0.3535
  942SOL    HW2 4268   2.290   1.494   0.333  0.8372 -0.0317  0.4234
  943SOL     OW 4269   3.305   3.294   2.898 -0.0814  0.2589  0.2565
  943SOL    HW1 4270   3.255   3.350   2.839 -0.1681 -0.2588 -0.1610
  943SOL    HW2 4271   3.388   3.340   2.910 -0.2513  0.6036  0.1207
  944SOL     OW 4272   3.496   2.546   4.203  0.0576  0.3595 -0.0997
  944SOL    HW1 4273   3.447   2.557   4.121 -0.7836  0.7341  0.4397
  944SOL    HW2 4274   3.505   2.451   4.212  1.5376  0.3310 -1.4047
  945SOL     OW 4275   4.281   3.718  10.662  0.4864 -0.4006 -0.0233
  945SOL    HW1 4276   4.197   3.754  10.633  0.5612  0.2555  0.5312
  945SOL    HW2 4277   4.257   3.660  10.735  0.4507 -0.7764 -0.3317
  946SOL     OW 4278   7.939   3.800   3.126 -0.1099  0.1872  0.5657
  946SOL    HW1 4279   7.851   3.771   3.104 -0.3754  0.6567  0.9622
  946SOL    HW2 4280   7.979   3.824   3.043 -0.9644  1.5987  0.5199
  947SOL     OW 4281   7.585   4.435  11.411  0.0479  0.1836  0.1415
  947SOL    HW1 4282   7.529   4.421  11.335  0.1775  0.4132  0.0022
  947SOL    HW2 4283   7.542   4.505  11.460  0.6650  0.9659 -0.4173
  948SOL     OW 4284   5.136   1.134   2.887 -0.0504 -0.2471 -0.7962
  948SOL    HW1 4285   5.189   1.152   2.964  0.2727  0.9469 -1.2762
  948SOL    HW2 4286   5.160   1.044   2.862 -1.8243 -1.5649  1.7589
  949SOL     OW 4287   2.589   0.330   8.969  0.3698  0.4870 -0.4655
  949SOL    HW1 4288   2.635   0.351   8.887  1.4141  0.0555 -0.0088
  949SOL    HW2 4289   2.656   0.338   9.037  0.4688 -2.6663 -0.0694
  950SOL     OW 4290   0.350   2.749   6.232 -0.3604  0.3465 -0.1373
  950SOL    HW1 4291   0.328   2.686   6.163 -0.8972  0.7428 -0.3329
  950SOL    HW2 4292   0.280   2.740   6.297 -0.9749  1.4009 -0.6197
  951SOL     OW 4293   6.425   0.304   5.072  0.0093  0.3443 -0.4211
  951SOL    HW1 4294   6.415   0.390   5.113 -1.3419  0.5534 -1.1415
  951SOL    HW2 4295   6.457   0.323   4.984  0.1147  0.0824 -0.4386
  952SOL     OW 4296   6.968   1.745  10.009 -0.3354  0.5276 -0.3546
  952SOL    HW1 4297   7.020   1.709  10.080  0.4930 -2.3553 -2.2553
  952SOL    HW2 4298   7.022   1.814   9.971  0.3246  0.3159  0.1991
  953SOL     OW 4299   2.404   3.489   4.584  0.4951  0.5023 -0.1509
  953SOL    HW1 4300   2.318   3.487   4.625  0.9198  1.8954  0.9225
  953SOL    HW2 4301   2.450   3.413   4.620 -0.5255 -0.7562 -1.4000
  954SOL     OW 4302   6.837   3.939   4.286 -0.2208 -0.3745 -0.1239
  954SOL    HW1 4303   6.867   4.023   4.321  0.1672 -0.4563 -0.2566
  954SOL    HW2 4304   6.753   3.959   4.245 -1.9256 -0.7104  2.9048
  955SOL     OW 4305   6.480   2.060  11.874  0.5412 -0.2301 -0.1617
  955SOL    HW1 4306   6.542   2.129  11.898  0.3435  0.3524 -1.2485
  955SOL    HW2 4307   6.413   2.106  11.823 -0.2465 -1.0266  0.1390
  956SOL     OW 4308   4.641   4.850  12.157 -0.4787  0.3822  0.5485
  956SOL    HW1 4309   4.644   4.931  12.207 -0.9543  1.7175 -1.4920
  956SOL    HW2 4310   4.667   4.782  12.220  0.4490  2.1536  2.1650
  957SOL     OW 4311   6.735   2.529   0.624 -0.4141 -0.7015  0.1496
  957SOL    HW1 4312   6.784   2.451   0.598  0.0778 -0.3116 -0.1308
  957SOL    HW2 4313   6.802   2.589   0.657 -0.4874  0.3883 -1.5446
  958SOL     OW 4314   6.882   2.464   8.020  0.3643 -0.3661  0.5341
  958SOL    HW1 4315   6.954   2.502   8.069  0.5870  2.2984 -1.6311
  958SOL    HW2 4316   6.804   2.483   8.072  0.8207  0.2324  1.0045
  959SOL     OW 4317   0.704   4.876   7.325 -0.1722  1.1551  0.2566
  959SOL    HW1 4318   0.695   4.795   7.274  0.3877 -0.1094  2.0693
  959SOL    HW2 4319   0.650   4.862   7.402 -0.0558  2.5272  0.6161
  960SOL     OW 4320   0.276   1.652   8.684 -0.1714  0.4090 -0.0270
  960SOL    HW1 4321   0.184   1.636   8.664  0.7417 -3.5097 -2.0998
  960SOL    HW2 4322   0.289   1.614   8.771 -0.2614 -0.3118 -0.3223
  961SOL     OW 4323   3.362   1.477  12.329 -0.1855  0.1862  0.0999
  961SOL    HW1 4324   3.446   1.452  12.290  0.3974 -0.2779  1.6095
  961SOL    HW2 4325   3.369   1.571  12.342 -0.0731  0.2154 -0.1545
  962SOL     OW 4326   5.366   6.852  10.152 -0.0194  0.0017 -0.6129
  962SOL    HW1 4327   5.303   6.920  10.125  1.9496  1.9736 -0.5064
  962SOL    HW2 4328   5.353   6.781  10.089 -1.7235  0.7087 -1.1294
  963SOL     OW 4329   4.638   5.144   8.191  0.1837 -0.1107 -0.0335
  963SOL    HW1 4330   4.582   5.190   8.253 -0.7543  0.9263 -1.5964
  963SOL    HW2 4331   4.622   5.051   8.209  1.0315  0.0896  2.1985
  964SOL     OW 4332   5.001   1.843   6.802  0.2077 -0.4648 -0.1654
  964SOL    HW1 4333   5.002   1.749   6.782  1.0926 -0.8935  1.7079
  964SOL    HW2 4334   5.092   1.871   6.793  0.1211 -0.0160  0.3135
  965SOL     OW 4335   0.001   6.634   6.383 -0.1795 -0.5732  0.2460
  965SOL    HW1 4336   0.032   6.544   6.395  0.8402 -0.1634  0.7845
  965SOL    HW2 4337   0.078   6.682   6.352 -0.7169  0.1244 -0.0411
  966SOL     OW 4338   6.520   3.987   1.032 -0.1963  0.4060  0.2159
  966SOL    HW1 4339   6.529   4.051   1.102 -0.9503 -0.4036  1.0871
  966SOL    HW2 4340   6.608   3.950   1.021  0.0411  0.9337  0.3394
  967SOL     OW 4341   3.514   0.353   0.538  0.2378 -0.1818  0.1904
  967SOL    HW1 4342   3.448   0.286   0.519  1.4397 -1.6217  0.9911
  967SOL    HW2 4343   3.538   0.338   0.629 -0.3023  2.1130  0.7811
  968SOL     OW 4344   1.930   5.424  10.898  0.3694  0.5244  0.0204
  968SOL    HW1 4345   1.953   5.466  10.816  0.5125  1.7664  0.6796
  968SOL    HW2 4346   1.939   5.493  10.964  1.7299 -0.8039  1.3098
  969SOL     OW 4347   1.921   2.400   6.099 -0.0835  0.0310 -0.6080
  969SOL    HW1 4348   2.016   2.402   6.113 -0.1367  0.8481 -0.3225
  969SOL    HW2 4349   1.894   2.315   6.135  0.3553  0.3762  0.6099
  970SOL     OW 4350   0.324   1.927   2.311  0.2969  0.4648 -0.7207
  970SOL    HW1 4351   0.400   1.984   2.325 -0.0839  0.8206 -0.0496
  970SOL    HW2 4352   0.339   1.853   2.370 -0.7172  1.3807  0.7465
  971SOL     OW 4353   5.126   5.368   0.464 -0.1617  0.4673 -0.1805
  971SOL    HW1 4354   5.098   5.429   0.533 -1.4471 -0.9447  0.6181
  971SOL    HW2 4355   5.093   5.283   0.493  1.3348 -0.5815 -1.3996
  972SOL     OW 4356   6.137   7.897   6.521  0.0599 -0.4740  0.4843
  972SOL    HW1 4357   6.055   7.846   6.528 -1.0866  1.4240  1.7104
  972SOL    HW2 4358   6.193   7.861   6.589 -0.3440 -0.7479  0.6768
  973SOL     OW 4359   1.347   0.685  10.608  0.3248 -0.2175 -0.2411
  973SOL    HW1 4360   1.288   0.618  10.644 -1.5433  1.1177 -0.6521
  973SOL    HW2 4361   1.382   0.730  10.685 -0.1252 -0.2764  0.0018
  974SOL     OW 4362   6.647   4.559   2.836  0.0890  0.4041  0.1697
  974SOL    HW1 4363   6.678   4.650   2.828 -0.4092  0.6793  1.2250
  974SOL    HW2 4364   6.727   4.508   2.852  0.2972  0.7493  0.2408
  975SOL     OW 4365   6.523   0.305   1.857 -0.6161 -0.1981 -0.2808
  975SOL    HW1 4366   6.511   0.298   1.763 -0.0776  2.4599 -0.6445
  975SOL    HW2 4367   6.435   0.300   1.893 -1.2447  1.9838 -1.3090
  976SOL     OW 4368   7.758   1.323   5.852  0.1206  0.2322 -0.0925
  976SOL    HW1 4369   7.761   1.403   5.905 -1.3349  0.0757  0.2728
  976SOL    HW2 4370   7.759   1.252   5.916 -1.4071  0.0356 -0.2433
  977SOL     OW 4371   4.385   0.584   7.850  0.4195 -0.7922  0.1033
  977SOL    HW1 4372   4.446   0.656   7.862  1.7004 -1.8074 -0.1186
  977SOL    HW2 4373   4.340   0.603   7.768  1.5787 -0.7966 -0.5611
  978SOL     OW 4374   2.312   4.736  11.527  0.1402 -0.3167  0.4332
  978SOL    HW1 4375   2.349   4.794  11.462 -0.3711  0.4541  0.8125
  978SOL    HW2 4376   2.289   4.793  11.600  1.5227 -1.2775  1.6773
  979SOL     OW 4377   3.810   2.219   2.221 -0.6661 -0.3921 -0.1778
  979SOL    HW1 4378   3.904   2.222   2.239 -0.4448 -0.1370 -1.2990
  979SOL    HW2 4379   3.775   2.158   2.286 -0.2383  1.7833  2.2903
  980SOL     OW 4380   0.447   7.756   5.046  0.0460 -0.1319  0.4719
  980SOL    HW1 4381   0.456   7.851   5.036  2.6247 -0.5196 -2.6489
  980SOL    HW2 4382   0.356   7.738   5.023 -0.2120  1.4978  0.0791
  981SOL     OW 4383   7.628   6.916   7.136  0.0289 -0.1827 -0.1579
  981SOL    HW1 4384   7.644   6.964   7.055 -0.4275  1.2735  0.5753
  981SOL    HW2 4385   7.685   6.958   7.201 -2.5515  1.4312  1.2015
  982SOL     OW 4386   5.138   2.938   0.239 -0.3415  0.5676  0.2170
  982SOL    HW1 4387   5.223   2.939   0.194 -0.1120  1.1064  0.6455
  982SOL    HW2 4388   5.155   2.892   0.321 -0.7658 -0.4398 -0.2392
  983SOL     OW 4389   5.118   3.878   0.228 -0.2748 -0.7294 -0.3340
  983SOL    HW1 4390   5.057   3.829   0.284 -1.8385 -1.8167 -2.8274
  983SOL    HW2 4391   5.100   3.970   0.248 -0.2238 -1.0601  1.4482
  984SOL     OW 4392   0.808   4.262   7.494 -0.1351 -0.3739  1.0065
  984SOL    HW1 4393   0.872   4.224   7.554  1.4512  1.5674  0.6244
  984SOL    HW2 4394   0.847   4.345   7.466 -2.8118  0.9119  0.7701
  985SOL     OW 4395   3.972   2.448   1.994  0.0192 -0.3246 -0.1369
  985SOL    HW1 4396   3.912   2.421   1.924 -0.1512 -0.8498  0.2039
  985SOL    HW2 4397   4.048   2.389   1.984  0.0916 -0.2508 -0.0219
  986SOL     OW 4398   0.995   3.411   0.187  0.2687 -0.0272  0.6640
  986SOL    HW1 4399   1.003   3.410   0.092  0.4665 -2.3196  0.6644
  986SOL    HW2 4400   0.903   3.428   0.203  0.3499  1.0750  0.1196
  987SOL     OW 4401   1.493   0.142   4.018  0.4290 -0.7172  0.1311
  987SOL    HW1 4402   1.577   0.187   4.006  0.4553 -0.4356  1.2839
  987SOL    HW2 4403   1.427   0.208   3.996  0.4937 -0.9290 -0.7446
  988SOL     OW 4404   2.024   3.907   5.881 -0.0655  0.4656 -0.0485
  988SOL    HW1 4405   2.051   3.816   5.867 -0.6018  0.6840 -3.1376
  988SOL    HW2 4406   2.051   3.926   5.971  2.1473 -2.0185 -0.0518
  989SOL     OW 4407   1.714   2.837  11.632 -0.0562  0.2763 -0.0303
  989SOL    HW1 4408   1.713   2.746  11.662 -0.9049 -0.8359 -3.0355
  989SOL    HW2 4409   1.625   2.853  11.600  0.4935  1.6072 -0.9992
  990SOL     OW 4410   1.429   2.758   2.683 -0.0849  0.7182 -0.5391
  990SOL    HW1 4411   1.511   2.759   2.734 -0.7304  0.6370  0.5221
  990SOL    HW2 4412   1.456   2.782   2.594  0.8588  2.2551  0.1321
  991SOL     OW 4413   7.233   7.609   6.293 -0.0510  0.1169 -0.0772
  991SOL    HW1 4414   7.286   7.684   6.267 -1.4128  1.7102  1.4620
  991SOL    HW2 4415   7.166   7.602   6.225  0.6858 -0.4106 -0.7729
  992SOL     OW 4416   4.566   7.035  10.316  0.1637 -0.2869  0.7754
  992SOL    HW1 4417   4.490   6.992  10.277  0.7625 -0.2613 -0.4726
  992SOL    HW2 4418   4.560   7.016  10.410 -1.2853 -0.4065  0.6732
  993SOL     OW 4419   3.652   4.794   2.901  0.3188 -0.0817  0.7994
  993SOL    HW1 4420   3.706   4.855   2.851  0.3813 -0.1848  0.7399
  993SOL    HW2 4421   3.684   4.707   2.875 -0.1734 -0.1548  0.4299
  994SOL     OW 4422   1.550   2.794  12.157 -0.2471  0.2567  0.4976
  994SOL    HW1 4423   1.548   2.701  12.179  0.4613  0.6104  2.1506
  994SOL    HW2 4424   1.459   2.814  12.134 -0.1878 -1.0874 -1.1319
  995SOL     OW 4425   3.625   5.627   2.296 -0.1034 -0.5234  0.1329
  995SOL    HW1 4426   3.673   5.566   2.352 -0.7010 -2.2688 -1.1660
  995SOL    HW2 4427   3.557   5.663   2.353  2.9043  2.5141  2.2162
  996SOL     OW 4428   1.263   0.073   5.205 -0.4121  0.0496 -0.6086
  996SOL    HW1 4429   1.179   0.117   5.218 -0.7049 -0.6014 -0.2100
  996SOL    HW2 4430   1.328   0.138   5.231 -0.8973 -0.2803  1.6670
  997SOL     OW 4431   4.396   0.405  11.653  0.1159 -0.2213  0.6072
  997SOL    HW1 4432   4.336   0.451  11.712  0.7330  0.8062  0.4628
  997SOL    HW2 4433   4.353   0.411  11.567  0.8483  1.3849  0.3150
  998SOL     OW 4434   1.051   6.365  10.576 -0.4734 -0.6135  0.4507
  998SOL    HW1 4435   1.007   6.421  10.639 -0.0481 -1.8984  1.9526
  998SOL    HW2 4436   1.135   6.343  10.617 -0.8122 -2.7084  0.1742
  999SOL     OW 4437   6.069   0.044   9.392  0.3055  0.2013 -0.4459
  999SOL    HW1 4438   6.007   0.106   9.353 -0.1845  0.1834  0.2766
  999SOL    HW2 4439   6.072  -0.029   9.331 -2.6130 -1.1147  0.8176
 1000SOL     OW 4440   7.360   4.551   1.742  0.0725 -0.7719 -0.2929
 1000SOL    HW1 4441   7.344   4.604   1.663  0.0240 -1.6304 -0.8776
 1000SOL    HW2 4442   7.307   4.592   1.810 -2.4828 -1.9027 -1.4945
 1001SOL     OW 4443   1.735   1.564   9.905  0.0425 -0.7406  0.3369
 1001SOL    HW1 4444   1.680   1.494   9.872  0.7258 -0.3783 -1.7417
 1001SOL    HW2 4445   1.724   1.562  10.000  0.2152 -3.7912  0.3717
 1002SOL     OW 4446   0.626   3.074   5.016  0.6599 -0.2249 -0.4215
 1002SOL    HW1 4447   0.666   3.018   5.083 -1.3630 -0.2289  0.8702
 1002SOL    HW2 4448   0.627   3.162   5.055 -1.0392 -0.3188 -0.1026
 1003SOL     OW 4449   0.931   2.567   8.623 -0.2469  0.7214 -0.2435
 1003SOL    HW1 4450   0.946   2.483   8.666 -2.0520 -0.2788 -1.4260
 1003SOL    HW2 4451   0.992   2.567   8.549 -1.9996 -0.8267 -1.8020
 1004SOL     OW 4452   5.526   5.806   6.283  0.2033 -0.1127  0.4468
 1004SOL    HW1 4453   5.539   5.711   6.284 -0.1792 -0.1992 -1.0111
 1004SOL    HW2 4454   5.605   5.840   6.240 -0.6559  0.0226 -1.0847
 1005SOL     OW 4455   7.185   6.610   6.885  0.0470 -0.4897 -0.2191
 1005SOL    HW1 4456   7.263   6.644   6.842  0.3224 -1.1534 -0.2472
 1005SOL    HW2 4457   7.114   6.626   6.822  0.4417 -1.4396 -0.9311
 1006SOL     OW 4458   1.582   0.805   1.147 -1.1399 -0.4174  0.3052
 1006SOL    HW1 4459   1.532   0.769   1.074  1.5211  1.0234 -2.4701
 1006SOL    HW2 4460   1.649   0.739   1.166  0.7385  0.8441 -1.5101
 1007SOL     OW 4461   4.461   6.613  10.912 -0.2216  0.1692 -0.2122
 1007SOL    HW1 4462   4.381   6.599  10.962 -0.7540  0.8102 -0.8598
 1007SOL    HW2 4463   4.487   6.526  10.882 -0.1288 -0.1716  0.7943
 1008SOL     OW 4464   5.033   5.306  12.358 -0.3611 -0.4114 -0.1023
 1008SOL    HW1 4465   4.945   5.270  12.348 -1.6913  2.5819 -0.1501
 1008SOL    HW2 4466   5.076   5.288  12.274 -2.5712  1.9674 -1.9185
 1009SOL     OW 4467   7.882   7.486  11.136  0.0347  0.0822  0.4945
 1009SOL    HW1 4468   7.897   7.410  11.080  0.5708  0.4726  0.0978
 1009SOL    HW2 4469   7.872   7.559  11.075 -0.0811  0.3978  0.8848
 1010SOL     OW 4470   2.851   0.559   4.168 -0.1777 -0.0258 -0.3482
 1010SOL    HW1 4471   2.900   0.633   4.203  1.5873 -1.1319 -0.3467
 1010SOL    HW2 4472   2.895   0.538   4.086 -2.1404  0.3828 -1.5882
 1011SOL     OW 4473   6.418   2.034   5.528  0.1962  0.2463  0.7046
 1011SOL    HW1 4474   6.504   1.994   5.514 -0.2274 -0.3219 -0.3817
 1011SOL    HW2 4475   6.367   1.965   5.571  0.0039  0.2391  0.4690
 1012SOL     OW 4476   1.258   1.614  11.175 -0.3935  0.2858  0.1221
 1012SOL    HW1 4477   1.207   1.623  11.094  0.8601  0.4619 -0.6624
 1012SOL    HW2 4478   1.253   1.521  11.196 -1.3323  0.3571  0.2654
 1013SOL     OW 4479   6.948   3.328   7.952  0.2222  0.1765 -0.2183
 1013SOL    HW1 4480   7.012   3.308   7.883 -0.1370  0.1877 -0.5586
 1013SOL    HW2 4481   6.998   3.375   8.018  0.7410 -0.4954 -0.1203
 1014SOL     OW 4482   5.874   6.862   1.371 -0.2401 -0.0587 -0.1682
 1014SOL    HW1 4483   5.834   6.931   1.424  1.6311 -0.1290  1.4174
 1014SOL    HW2 4484   5.842   6.879   1.282 -0.4349  2.3842  0.3033
 1015SOL     OW 4485   7.203   4.335   7.963 -0.4002  0.0870 -0.1613
 1015SOL    HW1 4486   7.249   4.418   7.977 -0.8215  0.3857 -0.5051
 1015SOL    HW2 4487   7.258   4.287   7.901  0.9201 -0.7888  1.5955
 1016SOL     OW 4488   4.786   5.940   4.179 -0.2008 -0.0024 -0.3454
 1016SOL    HW1 4489   4.770   5.970   4.269  1.4246  1.1015 -0.3867
 1016SOL    HW2 4490   4.826   6.015   4.136 -1.5465 -0.2794 -2.2179
 1017SOL     OW 4491   1.893   7.361   3.478 -0.0671  0.1882 -0.0978
 1017SOL    HW1 4492   1.967   7.417   3.453  0.3712  0.3767  1.5078
 1017SOL    HW2 4493   1.933   7.282   3.513 -0.5522  0.6965  1.7243
 1018SOL     OW 4494   0.238   3.635   3.018 -0.3394 -0.5975  0.1285
 1018SOL    HW1 4495   0.246   3.729   3.002 -1.6329 -0.5923 -0.6011
 1018SOL    HW2 4496   0.311   3.615   3.076  0.5914  0.6502 -0.5538
 1019SOL     OW 4497   7.403   2.444  12.163 -0.0320 -0.2786 -0.1784
 1019SOL    HW1 4498   7.337   2.401  12.109  0.9039  0.0116 -1.5945
 1019SOL    HW2 4499   7.452   2.372  12.203  0.6076 -0.5407 -1.3998
 1020SOL     OW 4500   3.074   6.012   9.794  0.2489 -0.0239  0.4398
 1020SOL    HW1 4501   3.005   6.031   9.857 -0.2014 -1.7949  0.5253
 1020SOL    HW2 4502   3.141   5.965   9.843  1.1282  0.8670  0.1468
 1021SOL     OW 4503   3.255   7.693   7.682 -0.4928  0.2752 -0.1417
 1021SOL    HW1 4504   3.349   7.708   7.671 -0.0349 -1.6469  0.7729
 1021SOL    HW2 4505   3.226   7.662   7.597 -0.3572  1.0361 -0.4789
 1022SOL     OW 4506   6.842   5.355  10.784 -0.1923  0.0904  0.5120
 1022SOL    HW1 4507   6.806   5.300  10.714  0.7790  1.3478 -1.0466
 1022SOL    HW2 4508   6.833   5.302  10.863 -1.0179 -1.5300 -0.6089
 1023SOL     OW 4509   7.328   3.106   0.307  0.1397  0.2746 -0.5666
 1023SOL    HW1 4510   7.270   3.106   0.383 -0.1924  1.4248 -0.7988
 1023SOL    HW2 4511   7.415   3.087   0.342 -0.0994  0.2542  0.0133
 1024SOL     OW 4512   7.578   1.476   2.704 -0.0306 -0.2496  0.9855
 1024SOL    HW1 4513   7.673   1.461   2.699 -0.2918 -2.0205  0.5061
 1024SOL    HW2 4514   7.563   1.504   2.794  1.0633  1.0618  0.7882
 1025SOL     OW 4515   6.980   7.478   9.867 -0.2174  0.3368 -0.1868
 1025SOL    HW1 4516   6.918   7.405   9.857 -1.6651  1.1915  1.8029
 1025SOL    HW2 4517   6.966   7.532   9.789 -1.8324  0.3587  0.0770
 1026SOL     OW 4518   3.276   0.490   0.101  0.2454 -0.4023 -0.3151
 1026SOL    HW1 4519   3.313   0.519   0.018  1.1341  0.7235  0.4435
 1026SOL    HW2 4520   3.196   0.445   0.077 -0.5103  1.5301 -1.6733
 1027SOL     OW 4521   7.522   6.633   3.724 -0.6036  0.0578  0.3504
 1027SOL    HW1 4522   7.474   6.640   3.642 -0.3735 -1.5905  0.0425
 1027SOL    HW2 4523   7.530   6.723   3.755 -0.9067  0.6854 -1.3033
 1028SOL     OW 4524   5.645   0.367   8.642  0.0547 -0.2491 -0.0637
 1028SOL    HW1 4525   5.715   0.395   8.583 -0.5036  3.9437  0.9374
 1028SOL    HW2 4526   5.565   0.375   8.589 -0.0384 -0.9007 -0.0192
 1029SOL     OW 4527   5.672   6.896   7.722  0.3223 -0.3638  0.1577
 1029SOL    HW1 4528   5.682   6.840   7.645 -0.5790 -0.2509 -0.0559
 1029SOL    HW2 4529   5.652   6.836   7.793  0.3289 -0.4000  0.1294
 1030SOL     OW 4530   1.701   5.967   3.053  0.0058 -0.4913 -0.9373
 1030SOL    HW1 4531   1.718   6.061   3.061  1.7225 -0.8290 -0.1532
 1030SOL    HW2 4532   1.666   5.956   2.965 -2.5475  1.1698 -0.2364
 1031SOL     OW 4533   1.377   3.307   1.874 -0.2281  0.1630 -0.3019
 1031SOL    HW1 4534   1.455   3.361   1.865 -0.3924  0.4021 -0.2908
 1031SOL    HW2 4535   1.355   3.313   1.967 -2.5309  3.2923 -0.8711
 1032SOL     OW 4536   7.876   7.869   4.918 -0.3831 -0.1384  0.0354
 1032SOL    HW1 4537   7.904   7.906   5.002  0.1271 -2.1557  0.8211
 1032SOL    HW2 4538   7.864   7.775   4.936  1.1197 -0.9149 -2.4448
 1033SOL     OW 4539   4.637   5.281   6.098  0.0759 -0.5139 -0.1818
 1033SOL    HW1 4540   4.566   5.342   6.078 -0.7799 -0.6736  2.0539
 1033SOL    HW2 4541   4.661   5.301   6.189  1.8175 -1.5403 -0.3730
 1034SOL     OW 4542   3.572   3.849  11.110 -0.0856 -0.7651 -0.1818
 1034SOL    HW1 4543   3.484   3.837  11.073 -1.2302 -2.0363  2.6284
 1034SOL    HW2 4544   3.624   3.780  11.070 -0.8452 -1.0866 -0.6378
 1035SOL     OW 4545   5.360   5.108   2.481  0.1939 -0.5660 -0.1610
 1035SOL    HW1 4546   5.450   5.089   2.506  0.1241 -1.6151 -0.6579
 1035SOL    HW2 4547   5.312   5.028   2.504 -0.9568  0.5643  1.7026
 1036SOL     OW 4548   1.792   7.200   5.027  0.0188  0.3752  0.7348
 1036SOL    HW1 4549   1.802   7.151   4.945  0.0791 -0.9663  1.5213
 1036SOL    HW2 4550   1.797   7.134   5.095 -2.7366  1.0828  1.7590
 1037SOL     OW 4551   2.073   5.472   3.575 -0.2603  0.3995  0.3439
 1037SOL    HW1 4552   1.999   5.517   3.616  0.5837  1.5193  0.6666
 1037SOL    HW2 4553   2.138   5.540   3.561  0.6974 -0.5601 -0.0067
 1038SOL     OW 4554   7.870   7.863   4.633 -0.0932  0.4817  0.5022
 1038SOL    HW1 4555   7.889   7.870   4.726  0.9875  0.0380  0.3277
 1038SOL    HW2 4556   7.796   7.802   4.629  0.3251 -0.0726  1.0272
 1039SOL     OW 4557   7.809   3.001   0.465 -0.1938  0.2733 -0.2221
 1039SOL    HW1 4558   7.757   2.948   0.525  1.2207  0.1347  0.9707
 1039SOL    HW2 4559   7.805   2.955   0.382 -0.6096 -0.6321  0.2837
 1040SOL     OW 4560   1.625   5.643   9.488  0.4989  0.6519 -0.3427
 1040SOL    HW1 4561   1.575   5.608   9.561 -1.9428  2.0324 -1.2224
 1040SOL    HW2 4562   1.655   5.566   9.440 -0.7712 -0.2637  0.2685
 1041SOL     OW 4563   0.315   1.529   6.183 -0.5966  0.1803  0.0872
 1041SOL    HW1 4564   0.229   1.498   6.152 -0.5970  0.0742  0.1949
 1041SOL    HW2 4565   0.295   1.574   6.265 -0.1048 -3.2249  2.2665
 1042SOL     OW 4566   1.790   6.979   5.568 -0.4360  0.4593 -0.4218
 1042SOL    HW1 4567   1.707   6.987   5.614 -0.4439  1.4361 -0.5709
 1042SOL    HW2 4568   1.826   7.068   5.568  0.4567  0.1131 -0.6410
 1043SOL     OW 4569   6.109   4.378  12.062  0.1391  0.0105  0.0576
 1043SOL    HW1 4570   6.090   4.471  12.053  0.1177 -0.0336 -0.3771
 1043SOL    HW2 4571   6.031   4.334  12.030  0.9966 -0.1724 -1.9321
 1044SOL     OW 4572   7.450   4.652   9.037  0.0907 -0.3381  0.7694
 1044SOL    HW1 4573   7.466   4.745   9.018  0.1656 -0.3715  0.6744
 1044SOL    HW2 4574   7.518   4.605   8.989 -1.2134 -0.5853 -0.9032
 1045SOL     OW 4575   6.601   0.418   8.647 -0.0360  0.0331  0.8230
 1045SOL    HW1 4576   6.626   0.358   8.577 -1.0321  0.9279 -0.3309
 1045SOL    HW2 4577   6.671   0.482   8.650 -0.0228  0.0305  0.5938
 1046SOL     OW 4578   2.633   6.488   8.527  0.1348  0.1148  0.0495
 1046SOL    HW1 4579   2.603   6.531   8.607 -0.2456 -2.3479  1.3289
 1046SOL    HW2 4580   2.655   6.399   8.554  2.8907  0.0384 -2.0246
 1047SOL     OW 4581   6.559   3.832   0.445 -0.2470  0.2146 -0.2002
 1047SOL    HW1 4582   6.560   3.812   0.351 -0.0828  0.2527 -0.2077
 1047SOL    HW2 4583   6.468   3.821   0.471 -0.0856 -1.1021 -0.0862
 1048SOL     OW 4584   3.712   2.408   4.873 -0.5238 -0.0861 -0.1868
 1048SOL    HW1 4585   3.740   2.382   4.786  0.4072  0.8871 -0.1920
 1048SOL    HW2 4586   3.784   2.460   4.908 -1.1493  0.0883  0.9121
 1049SOL     OW 4587   2.644   2.669  11.486 -0.3195 -0.1179 -0.4874
 1049SOL    HW1 4588   2.715   2.732  11.470 -1.1278  1.1898  0.7245
 1049SOL    HW2 4589   2.579   2.688  11.418 -0.2610 -0.1015 -0.5387
 1050SOL     OW 4590   6.340   3.472  10.024  0.4884  0.1533 -0.3852
 1050SOL    HW1 4591   6.377   3.558  10.046  1.1692  0.0673 -1.1344
 1050SOL    HW2 4592   6.417   3.417  10.007  0.1781 -1.2678  2.2840
 1051SOL     OW 4593   7.261   0.748  10.649  0.0129 -0.1896 -0.6197
 1051SOL    HW1 4594   7.286   0.656  10.645  1.1939 -0.1608  2.8309
 1051SOL    HW2 4595   7.166   0.746  10.658  0.2175 -1.3808  2.4242
 1052SOL     OW 4596   6.201   0.522   7.264 -0.0836 -0.4023  0.1839
 1052SOL    HW1 4597   6.260   0.464   7.312  1.6641  1.2225  0.1328
 1052SOL    HW2 4598   6.189   0.597   7.322 -0.0437  0.4108 -0.8326
 1053SOL     OW 4599   3.186   3.848  10.081  0.1795  0.4102  0.1594
 1053SOL    HW1 4600   3.229   3.799  10.151  1.0452 -1.1117 -1.3532
 1053SOL    HW2 4601   3.231   3.932  10.080  0.8222  0.0907  0.8045
 1054SOL     OW 4602   1.285   3.893   2.027  0.3721  0.1961  0.0605
 1054SOL    HW1 4603   1.314   3.805   2.003  0.2720  0.2877 -0.4125
 1054SOL    HW2 4604   1.204   3.879   2.076 -1.0139  0.1072 -2.0980
 1055SOL     OW 4605   0.439   1.108   0.286 -0.1804 -0.4974 -0.5590
 1055SOL    HW1 4606   0.499   1.170   0.244 -1.0987  1.2632  0.5815
 1055SOL    HW2 4607   0.493   1.062   0.350  0.1618  0.5506 -0.0546
 1056SOL     OW 4608   3.842   2.865   3.686 -1.0061  0.1050  0.6549
 1056SOL    HW1 4609   3.817   2.829   3.771  1.3929 -1.3387  0.8193
 1056SOL    HW2 4610   3.887   2.947   3.707 -0.2263 -0.3556  0.8240
 1057SOL     OW 4611   6.439   6.958   8.134  0.1047  0.4142  0.1100
 1057SOL    HW1 4612   6.498   6.971   8.059 -0.1931 -1.3515 -0.4754
 1057SOL    HW2 4613   6.352   6.949   8.094 -0.1859  0.3778  0.7490
 1058SOL     OW 4614   6.081   5.189   3.990  0.1033 -0.2568 -0.3077
 1058SOL    HW1 4615   6.101   5.277   4.023  0.0437 -0.2663 -0.2466
 1058SOL    HW2 4616   5.994   5.196   3.952  1.0806  0.3346 -2.5565
 1059SOL     OW 4617   2.799   1.833   6.421  0.2464 -0.2543 -0.1290
 1059SOL    HW1 4618   2.866   1.891   6.456  1.2081 -2.0372  1.2015
 1059SOL    HW2 4619   2.765   1.787   6.498 -1.4081 -0.5263 -0.9696
 1060SOL     OW 4620   0.174   5.770  11.148  0.4278 -0.0855 -0.1439
 1060SOL    HW1 4621   0.259   5.750  11.107  0.2887  1.2905 -1.1692
 1060SOL    HW2 4622   0.170   5.865  11.149 -0.3243 -0.0960  1.6081
 1061SOL     OW 4623   2.178   5.665  12.128 -0.3736 -0.2065  0.2211
 1061SOL    HW1 4624   2.126   5.674  12.048 -0.4161 -0.4709  0.2189
 1061SOL    HW2 4625   2.114   5.641  12.195 -0.2689 -0.4179  0.2433
 1062SOL     OW 4626   3.269   7.754   2.855  0.0529 -0.0877  0.1478
 1062SOL    HW1 4627   3.319   7.812   2.797 -0.9388 -1.7793 -2.5846
 1062SOL    HW2 4628   3.328   7.680   2.871  0.3697  0.4269  1.4889
 1063SOL     OW 4629   1.651   1.514  10.153 -0.3449 -0.0243  0.1975
 1063SOL    HW1 4630   1.694   1.430  10.140 -2.0542 -0.7827 -0.9861
 1063SOL    HW2 4631   1.566   1.492  10.192 -1.4974  0.9324 -1.6104
 1064SOL     OW 4632   4.835   5.245  10.815  0.3207  0.1774 -0.1985
 1064SOL    HW1 4633   4.829   5.310  10.745  2.8156  1.7568  0.9167
 1064SOL    HW2 4634   4.803   5.290  10.893  2.4805  0.3337  0.6788
 1065SOL     OW 4635   4.399   3.257  11.553  0.0464  0.1033  0.2337
 1065SOL    HW1 4636   4.404   3.163  11.572 -1.2075 -0.1286 -0.4971
 1065SOL    HW2 4637   4.460   3.269  11.480  0.4102 -0.0818  0.4997
 1066SOL     OW 4638   1.644   0.476   8.991 -0.0244  0.1817 -0.1891
 1066SOL    HW1 4639   1.715   0.496   9.053  0.8408  0.7956 -1.3540
 1066SOL    HW2 4640   1.564   0.494   9.040  0.6507  1.6876  0.4275
 1067SOL     OW 4641   3.352   0.402  10.475  0.4994 -0.3725  0.2646
 1067SOL    HW1 4642   3.370   0.375  10.565  0.6843  1.2674  0.7500
 1067SOL    HW2 4643   3.423   0.364  10.423  0.8220 -0.6859  0.9276
 1068SOL     OW 4644   2.160   6.490  12.126 -0.0625  0.2888  0.3796
 1068SOL    HW1 4645   2.195   6.425  12.188  0.4120  0.4596  0.2914
 1068SOL    HW2 4646   2.237   6.528  12.085 -0.3649  0.4474 -0.0462
 1069SOL     OW 4647   4.109   7.933   5.766 -0.0931  0.4605  0.7447
 1069SOL    HW1 4648   4.178   7.956   5.828  2.2316 -1.9177 -0.7098
 1069SOL    HW2 4649   4.086   7.842   5.789  0.1055 -0.1138 -1.1578
 1070SOL     OW 4650   2.725   5.107   0.644 -0.1362  0.0493 -0.1055
 1070SOL    HW1 4651   2.793   5.041   0.657 -0.8623 -0.8055 -0.5107
 1070SOL    HW2 4652   2.659   5.063   0.591 -1.6936  0.3976  1.4736
 1071SOL     OW 4653   3.383   1.395   1.277  0.2139  0.0460  0.0378
 1071SOL    HW1 4654   3.423   1.461   1.220  1.1154  0.3988  1.0292
 1071SOL    HW2 4655   3.366   1.442   1.359 -0.4855 -0.5954  0.2625
 1072SOL     OW 4656   7.633   5.295   9.396  0.1838 -0.1708 -0.3596
 1072SOL    HW1 4657   7.668   5.254   9.476 -0.0108  2.2104  1.0442
 1072SOL    HW2 4658   7.705   5.350   9.365  0.0848 -0.7080 -1.5699
 1073SOL     OW 4659   2.604   7.148   5.298  0.2843 -0.0173 -0.1467
 1073SOL    HW1 4660   2.518   7.148   5.255  0.1482 -1.9071  0.0602
 1073SOL    HW2 4661   2.665   7.173   5.229 -0.2374 -0.4178 -0.7689
 1074SOL     OW 4662   4.342   2.266   0.372 -0.3853 -0.0127  0.0842
 1074SOL    HW1 4663   4.255   2.246   0.335  0.6319 -2.8878 -1.0673
 1074SOL    HW2 4664   4.343   2.219   0.455  0.4585 -1.0354 -0.4847
 1075SOL     OW 4665   1.568   0.915   6.470 -0.0771  0.4419 -0.3644
 1075SOL    HW1 4666   1.609   0.904   6.384 -0.8362 -0.2468 -0.6561
 1075SOL    HW2 4667   1.561   0.825   6.504 -0.2845  0.6598  0.1757
 1076SOL     OW 4668   5.952   3.997   6.534  0.3132 -0.1439 -0.3810
 1076SOL    HW1 4669   5.964   4.019   6.442  0.1929  1.0434 -0.1210
 1076SOL    HW2 4670   5.905   3.913   6.532 -1.0167  0.5803 -1.4167
 1077SOL     OW 4671   7.864   2.218   1.150 -0.6476 -0.5933 -0.2832
 1077SOL    HW1 4672   7.817   2.192   1.070 -1.2280  0.6477 -0.3817
 1077SOL    HW2 4673   7.809   2.287   1.187 -1.1893 -2.1650  2.0312
 1078SOL     OW 4674   2.779   6.223  12.197  0.2232  0.3381 -0.7049
 1078SOL    HW1 4675   2.714   6.185  12.138 -1.6392 -0.9645  1.9705
 1078SOL    HW2 4676   2.728   6.258  12.270  2.4131  1.4212  0.4086
 1079SOL     OW 4677   2.553   1.660   9.211  0.0007  0.3531 -0.2607
 1079SOL    HW1 4678   2.595   1.714   9.278 -1.3230  0.3785  0.5718
 1079SOL    HW2 4679   2.623   1.601   9.181  1.0433  1.4484 -0.0662
 1080SOL     OW 4680   3.935   7.855   8.182 -0.1713  0.0514  0.4032
 1080SOL    HW1 4681   3.935   7.844   8.277  2.5196 -1.1728  0.3471
 1080SOL    HW2 4682   3.965   7.945   8.168 -1.0743  0.4091  0.6782
 1081SOL     OW 4683   0.586   5.478   0.134  0.4765 -0.1076 -0.0285
 1081SOL    HW1 4684   0.505   5.427   0.139  1.2808 -1.3370  0.8342
 1081SOL    HW2 4685   0.632   5.442   0.058  1.3926 -1.2234  1.0280
 1082SOL     OW 4686   2.807   6.631  12.351 -0.3154  0.4682 -0.3035
 1082SOL    HW1 4687   2.892   6.589  12.337 -0.6120 -0.1250 -0.3779
 1082SOL    HW2 4688   2.750   6.593  12.285 -1.3345 -1.2329  1.4426
 1083SOL     OW 4689   1.224   4.678   7.411  0.2181 -0.2694  0.1654
 1083SOL    HW1 4690   1.319   4.679   7.426  0.1557 -1.1412  0.6975
 1083SOL    HW2 4691   1.201   4.770   7.398  0.8775  0.1691  1.7897
 1084SOL     OW 4692   2.894   7.804   0.368 -0.7863 -0.6650  0.0460
 1084SOL    HW1 4693   2.966   7.855   0.404 -1.4447  0.5686 -0.3168
 1084SOL    HW2 4694   2.886   7.729   0.427 -0.9967  0.6164  1.7300
 1085SOL     OW 4695   7.517   6.437   4.985 -0.0595 -0.3115 -0.2085
 1085SOL    HW1 4696   7.485   6.504   4.924  0.7332  0.1097 -0.1700
 1085SOL    HW2 4697   7.501   6.475   5.071 -0.8572 -0.7594 -0.1465
 1086SOL     OW 4698   6.398   6.704   0.862 -0.2388  0.4833 -0.4125
 1086SOL    HW1 4699   6.484   6.722   0.825 -0.4699 -0.6423 -1.5740
 1086SOL    HW2 4700   6.339   6.703   0.787 -0.8179 -1.2521  0.0109
 1087SOL     OW 4701   1.752   7.411   8.576 -0.3740  0.2727  0.2123
 1087SOL    HW1 4702   1.753   7.449   8.488 -2.2521 -0.3919 -0.1571
 1087SOL    HW2 4703   1.726   7.484   8.632  1.3394  0.8287  0.3201
 1088SOL     OW 4704   1.382   6.031   4.080  0.6356  0.1011  0.4995
 1088SOL    HW1 4705   1.288   6.040   4.092  0.6032 -1.0292  1.2164
 1088SOL    HW2 4706   1.420   6.067   4.161  0.7963  0.0586  0.4444
 1089SOL     OW 4707   6.548   2.804   1.316 -0.1669 -0.2177 -0.3611
 1089SOL    HW1 4708   6.640   2.828   1.323  0.6968 -3.0784 -0.5112
 1089SOL    HW2 4709   6.502   2.888   1.310  2.2813  1.3616  0.9292
 1090SOL     OW 4710   0.627   0.725   9.464 -0.1256  0.2436  0.1360
 1090SOL    HW1 4711   0.676   0.796   9.424 -1.2936  0.6749 -0.5857
 1090SOL    HW2 4712   0.588   0.677   9.390 -0.4895 -0.3020  0.6665
 1091SOL     OW 4713   6.330   2.539   5.657 -0.5823 -0.3739  0.0077
 1091SOL    HW1 4714   6.388   2.481   5.706 -1.4667 -0.5435  0.8788
 1091SOL    HW2 4715   6.379   2.622   5.652  0.7172 -1.1854 -1.3227
 1092SOL     OW 4716   3.853   0.238  12.369  0.1035  0.1356  0.1723
 1092SOL    HW1 4717   3.826   0.186  12.445 -0.9731  1.8925  1.0633
 1092SOL    HW2 4718   3.778   0.235  12.310  0.7483 -0.8070 -0.6421
 1093SOL     OW 4719   1.026   3.837   7.717  0.6235  0.2115 -0.0595
 1093SOL    HW1 4720   1.057   3.908   7.773  0.4901  0.6567 -0.5486
 1093SOL    HW2 4721   0.937   3.862   7.693  0.1966 -0.6310  0.6058
 1094SOL     OW 4722   3.880   5.925   2.713 -0.0659  0.4741 -0.0142
 1094SOL    HW1 4723   3.935   5.853   2.684 -0.3961  0.4925 -0.7011
 1094SOL    HW2 4724   3.794   5.886   2.728  0.2228  0.3651  1.4587
 1095SOL     OW 4725   3.848   0.254  10.889 -0.1236 -0.6230  0.0030
 1095SOL    HW1 4726   3.764   0.207  10.890 -0.5403 -0.0029 -1.9618
 1095SOL    HW2 4727   3.914   0.184  10.897 -0.7981 -1.1914  0.7592
 1096SOL     OW 4728   0.248   5.581   4.019  0.5339 -0.2407  0.0689
 1096SOL    HW1 4729   0.184   5.577   3.948 -0.4549 -0.1627  0.9279
 1096SOL    HW2 4730   0.213   5.521   4.086  2.5020 -1.9676 -0.3215
 1097SOL     OW 4731   5.437   0.528   0.710 -0.0702 -0.5736 -0.5214
 1097SOL    HW1 4732   5.352   0.527   0.754 -0.8908  1.0741 -1.9166
 1097SOL    HW2 4733   5.419   0.492   0.623  0.7532 -0.5953 -0.6890
 1098SOL     OW 4734   4.333   2.896  11.898 -0.0248  0.5205 -0.0852
 1098SOL    HW1 4735   4.286   2.915  11.816 -0.6186 -1.4815 -0.2534
 1098SOL    HW2 4736   4.376   2.979  11.920 -0.8759  1.4649 -1.7444
 1099SOL     OW 4737   0.309   3.007   0.750  0.4539 -0.3630 -0.0582
 1099SOL    HW1 4738   0.222   3.001   0.790  0.8937  0.2231  1.0326
 1099SOL    HW2 4739   0.318   3.099   0.727 -0.1389 -0.8218 -2.4219
 1100SOL     OW 4740   2.633   4.903   4.921 -0.1243 -0.4041 -0.0469
 1100SOL    HW1 4741   2.701   4.968   4.902  0.2378 -0.9465 -0.6523
 1100SOL    HW2 4742   2.579   4.900   4.841 -1.5084  0.7727  0.7963
 1101SOL     OW 4743   4.901   6.484   3.686 -0.1666 -0.0288  0.1594
 1101SOL    HW1 4744   4.834   6.490   3.754 -1.3431 -0.6108 -0.9194
 1101SOL    HW2 4745   4.920   6.575   3.663 -1.0851  0.1300  0.0013
 1102SOL     OW 4746   5.377   7.177   1.259 -0.0563  0.5967  0.0816
 1102SOL    HW1 4747   5.305   7.159   1.320  1.0727  0.8354  1.5346
 1102SOL    HW2 4748   5.394   7.271   1.270  0.8732  0.4190  0.2207
 1103SOL     OW 4749   2.728   0.250   3.238  0.4068 -0.0828  0.0595
 1103SOL    HW1 4750   2.686   0.214   3.160  1.1857  2.9313 -1.9479
 1103SOL    HW2 4751   2.805   0.194   3.252 -1.5596 -2.7665  0.9135
 1104SOL     OW 4752   2.409   6.366   2.150  0.1665 -0.0594 -0.1412
 1104SOL    HW1 4753   2.498   6.371   2.116 -1.0068 -0.8156 -3.7126
 1104SOL    HW2 4754   2.394   6.272   2.163 -0.3954 -0.0095 -0.4273
 1105SOL     OW 4755   5.207   7.641   3.327  0.6402  0.6191  0.1706
 1105SOL    HW1 4756   5.151   7.713   3.301  0.3846  0.1083 -0.7305
 1105SOL    HW2 4757   5.255   7.617   3.248  0.6810 -0.2352  0.4333
 1106SOL     OW 4758   3.954   0.994   5.864  0.2260 -0.2966 -0.0201
 1106SOL    HW1 4759   3.948   0.924   5.928 -0.3128  0.3238  0.6315
 1106SOL    HW2 4760   3.889   0.971   5.797  1.2722 -1.2956 -0.7111
 1107SOL     OW 4761   5.165   5.800   8.003  0.3589 -0.2758 -0.2336
 1107SOL    HW1 4762   5.162   5.708   7.980  0.2484 -0.2666 -0.2598
 1107SOL    HW2 4763   5.237   5.836   7.952 -0.0825 -0.1878 -0.8157
 1108SOL     OW 4764   6.434   6.845   2.932 -0.0091 -0.0647 -0.4658
 1108SOL    HW1 4765   6.481   6.927   2.914  0.7483 -0.5932 -0.9581
 1108SOL    HW2 4766   6.400   6.856   3.021  1.1866  0.2815 -0.0282
 1109SOL     OW 4767   2.888   5.140   8.811 -0.0021 -0.4397  0.2063
 1109SOL    HW1 4768   2.841   5.218   8.840  0.7224  0.0282  0.1647
 1109SOL    HW2 4769   2.938   5.113   8.889  1.4246  0.4237 -0.3559
 1110SOL     OW 4770   4.669   3.642   1.212  0.7189  0.2084 -0.6944
 1110SOL    HW1 4771   4.642   3.580   1.280  1.9270 -0.7517 -1.0470
 1110SOL    HW2 4772   4.748   3.684   1.247 -0.2206  1.7479 -0.3633
 1111SOL     OW 4773   2.422   1.167   4.049 -0.7466  0.1965  0.3932
 1111SOL    HW1 4774   2.514   1.142   4.057 -0.9558 -0.9627 -0.5825
 1111SOL    HW2 4775   2.422   1.244   3.993 -0.3952 -0.0564  0.0404
 1112SOL     OW 4776   5.412   4.842   4.297 -0.7091  0.4393 -0.3688
 1112SOL    HW1 4777   5.480   4.908   4.314  0.6524 -1.4771  2.3070
 1112SOL    HW2 4778   5.424   4.819   4.205  1.6099  0.9463 -0.2740
 1113SOL     OW 4779   6.264   6.197   7.869  0.3811 -0.1093  0.6018
 1113SOL    HW1 4780   6.216   6.127   7.826  0.7231 -0.6298  1.0576
 1113SOL    HW2 4781   6.269   6.267   7.803  1.9484 -1.3351 -0.6857
 1114SOL     OW 4782   3.254   5.020   6.443 -0.2719 -0.4035 -0.9628
 1114SOL    HW1 4783   3.260   4.941   6.390  0.9374  0.6653 -2.5523
 1114SOL    HW2 4784   3.305   5.001   6.521 -1.1521 -1.6440 -0.6671
 1115SOL     OW 4785   1.489   4.113  10.232 -0.3377  0.1881  0.4124
 1115SOL    HW1 4786   1.577   4.151  10.234 -0.3714  0.2713  0.3136
 1115SOL    HW2 4787   1.504   4.018  10.230 -0.2512  0.2006  0.4572
 1116SOL     OW 4788   0.429   7.431  11.037 -0.2524  0.0151 -0.0245
 1116SOL    HW1 4789   0.371   7.491  11.084 -0.1006  0.6243 -0.5874
 1116SOL    HW2 4790   0.400   7.437  10.946  1.1321  0.8957 -0.4495
 1117SOL     OW 4791   6.527   0.169   2.175 -0.0888  0.3850  0.3049
 1117SOL    HW1 4792   6.506   0.088   2.128 -0.0815  0.1737  0.6618
 1117SOL    HW2 4793   6.597   0.210   2.124  0.2655 -0.0909  0.4018
 1118SOL     OW 4794   1.025   0.204   3.407  0.3310 -0.1782  0.4414
 1118SOL    HW1 4795   1.024   0.296   3.382 -1.8202 -0.3092 -0.1517
 1118SOL    HW2 4796   1.037   0.157   3.325  0.4151 -0.4520  0.6074
 1119SOL     OW 4797   3.139   1.851   3.655 -0.2395  0.4941  0.1366
 1119SOL    HW1 4798   3.081   1.928   3.654 -1.0136 -0.0785  0.4982
 1119SOL    HW2 4799   3.080   1.776   3.656  0.5166 -0.1045  0.9031
 1120SOL     OW 4800   4.433   4.273   8.885 -0.1729  0.5061 -0.1049
 1120SOL    HW1 4801   4.380   4.254   8.808 -1.9977  1.6538  0.8040
 1120SOL    HW2 4802   4.449   4.367   8.881  0.9174  0.3464  0.1993
 1121SOL     OW 4803   4.531   5.012   4.396 -0.6976  0.4753  0.1145
 1121SOL    HW1 4804   4.488   4.928   4.380 -0.7424  0.2395  1.3818
 1121SOL    HW2 4805   4.533   5.054   4.310 -1.1787 -0.5778 -0.4383
 1122SOL     OW 4806   4.205   0.447   3.660  0.1523  0.2038  0.6386
 1122SOL    HW1 4807   4.152   0.431   3.582  0.4661 -0.6984  0.6023
 1122SOL    HW2 4808   4.159   0.518   3.705 -1.8044 -1.3263  1.2236
 1123SOL     OW 4809   7.754   7.062  10.871  0.5916 -0.3846 -0.3947
 1123SOL    HW1 4810   7.663   7.066  10.901  0.7621 -0.8059  0.1809
 1123SOL    HW2 4811   7.769   6.969  10.853  0.7200 -0.2364 -1.0933
 1124SOL     OW 4812   7.353   4.308   3.625  0.5142 -0.3890  0.5247
 1124SOL    HW1 4813   7.434   4.303   3.574 -0.3033 -2.5519 -0.6509
 1124SOL    HW2 4814   7.364   4.242   3.694 -0.4659 -1.1307 -0.0110
 1125SOL     OW 4815   2.833   2.411  11.167 -0.4137 -0.3635 -0.0015
 1125SOL    HW1 4816   2.876   2.474  11.226 -1.0071 -0.4518  0.5358
 1125SOL    HW2 4817   2.902   2.385  11.106 -0.1517  0.8175 -0.2488
 1126SOL     OW 4818   2.307   7.708   6.786 -0.3732 -0.0858  0.0667
 1126SOL    HW1 4819   2.239   7.656   6.828  0.2512 -0.2397  0.9330
 1126SOL    HW2 4820   2.357   7.744   6.859 -1.0726  2.1538 -0.4988
 1127SOL     OW 4821   6.418   1.555   6.545 -0.1378 -0.4685  0.2604
 1127SOL    HW1 4822   6.338   1.575   6.593  0.6416 -1.4360  2.0432
 1127SOL    HW2 4823   6.391   1.493   6.477 -1.1878  0.6408 -0.3848
 1128SOL     OW 4824   2.780   6.759   8.983 -0.2231 -0.0135  0.2698
 1128SOL    HW1 4825   2.847   6.822   8.957 -0.0772  0.3837  1.5339
 1128SOL    HW2 4826   2.828   6.676   8.991 -0.5366 -0.4640 -2.0105
 1129SOL     OW 4827   6.562   2.037   0.860  0.0027 -0.1138 -0.2269
 1129SOL    HW1 4828   6.515   2.086   0.928  0.1778  1.8465 -1.4348
 1129SOL    HW2 4829   6.494   2.013   0.797  0.1395 -0.1161 -0.3728
 1130SOL     OW 4830   7.233   1.281   8.430 -0.1409 -0.1179 -0.0716
 1130SOL    HW1 4831   7.167   1.295   8.362  0.9700 -0.0788 -1.1783
 1130SOL    HW2 4832   7.293   1.355   8.421  1.1869 -1.2016 -0.4747
 1131SOL     OW 4833   5.855   1.660   2.537 -0.2571 -0.4597  0.6060
 1131SOL    HW1 4834   5.836   1.747   2.504 -1.7416 -0.8048  0.4881
 1131SOL    HW2 4835   5.940   1.637   2.498 -0.5034  0.3779 -0.4513
 1132SOL     OW 4836   0.913   4.735   5.475  0.5902 -0.0570  0.3279
 1132SOL    HW1 4837   0.834   4.756   5.525  0.3521  0.7611 -0.3754
 1132SOL    HW2 4838   0.914   4.640   5.471 -0.1277 -0.0874  0.7218
 1133SOL     OW 4839   6.130   4.953   7.929  0.4084 -1.0718  0.0116
 1133SOL    HW1 4840   6.035   4.949   7.918  0.2005 -0.5925  1.4472
 1133SOL    HW2 4841   6.161   4.868   7.898 -0.3027 -0.6884 -1.9191
 1134SOL     OW 4842   1.799   5.993   0.976 -0.0460  0.1792 -0.2140
 1134SOL    HW1 4843   1.740   6.065   0.954  1.9894  1.8659 -0.4944
 1134SOL    HW2 4844   1.862   5.991   0.905  2.9479  1.5748  2.1560
 1135SOL     OW 4845   2.238   6.029   5.071  0.3701 -0.0761 -0.0524
 1135SOL    HW1 4846   2.193   6.110   5.094  0.0051 -0.1568 -0.4554
 1135SOL    HW2 4847   2.208   5.965   5.135 -0.5994 -0.2883 -0.6861
 1136SOL     OW 4848   5.115   0.267  11.900 -0.8347 -0.0479  0.2894
 1136SOL    HW1 4849   5.022   0.246  11.913 -1.0538  0.1694 -0.8042
 1136SOL    HW2 4850   5.159   0.231  11.977 -1.8212 -0.1881  0.8072
 1137SOL     OW 4851   7.013   2.889   1.663  0.9473  0.5524 -0.4489
 1137SOL    HW1 4852   7.060   2.950   1.719  0.5452 -0.7634  1.4151
 1137SOL    HW2 4853   7.078   2.825   1.636  0.6559 -0.2367  0.6382
 1138SOL     OW 4854   4.445   4.849   0.546  0.2061  0.1419  0.3659
 1138SOL    HW1 4855   4.403   4.847   0.632 -0.4412 -0.2079  0.0519
 1138SOL    HW2 4856   4.510   4.779   0.548 -0.8006 -0.8314  0.0925
 1139SOL     OW 4857   0.987   4.452   1.413  0.5679  0.5239 -0.4929
 1139SOL    HW1 4858   0.936   4.371   1.406  0.3952  0.7497 -2.3930
 1139SOL    HW2 4859   1.058   4.441   1.350  1.4733  1.2136  0.3791
 1140SOL     OW 4860   6.556   0.504   3.610  0.6171 -0.0737 -0.4168
 1140SOL    HW1 4861   6.502   0.428   3.634  0.6057 -0.6874 -2.1614
 1140SOL    HW2 4862   6.553   0.504   3.514  0.6994  2.1059 -0.4535
 1141SOL     OW 4863   1.353   3.114   7.876  0.4949 -0.0222  0.1876
 1141SOL    HW1 4864   1.324   3.205   7.877  1.2502  0.2239  1.2533
 1141SOL    HW2 4865   1.275   3.063   7.899  0.3905  0.4652  0.9338
 1142SOL     OW 4866   5.107   2.433  10.921  0.5450 -0.1479  0.5398
 1142SOL    HW1 4867   5.145   2.387  10.996  1.7581  2.1314  1.4204
 1142SOL    HW2 4868   5.088   2.521  10.954  3.4272  1.8069 -2.3112
 1143SOL     OW 4869   1.508   2.665   1.556  0.1381  0.1668  0.9452
 1143SOL    HW1 4870   1.456   2.585   1.556  0.6563 -0.1887 -0.0959
 1143SOL    HW2 4871   1.577   2.649   1.621  1.1899 -0.8935 -0.3829
 1144SOL     OW 4872   0.839   5.367   3.259 -0.3283  0.3430 -0.2562
 1144SOL    HW1 4873   0.793   5.383   3.341 -1.4859  2.5283 -1.2435
 1144SOL    HW2 4874   0.930   5.393   3.277 -0.2862 -0.4119  0.6658
 1145SOL     OW 4875   4.257   7.461   0.145 -0.0437 -0.0926  0.3150
 1145SOL    HW1 4876   4.163   7.460   0.163 -0.2598  2.2243 -0.3046
 1145SOL    HW2 4877   4.263   7.455   0.049  0.5617 -2.0560  0.4435
 1146SOL     OW 4878   0.660   5.119   0.097  0.0924 -0.2522  0.1201
 1146SOL    HW1 4879   0.665   5.153   0.007 -0.8001  1.2859  0.6271
 1146SOL    HW2 4880   0.567   5.112   0.115  0.1913 -3.0199  0.0957
 1147SOL     OW 4881   6.984   7.529   7.194  0.4615  0.0530 -0.0492
 1147SOL    HW1 4882   6.931   7.471   7.141  0.3783  0.0086  0.0812
 1147SOL    HW2 4883   6.989   7.611   7.145  1.3206 -0.3519 -0.6610
 1148SOL     OW 4884   3.138   5.357   2.616  0.1264  0.1073  0.3282
 1148SOL    HW1 4885   3.105   5.313   2.694 -2.2134  1.3479  0.1309
 1148SOL    HW2 4886   3.066   5.351   2.553  1.1504  0.9617 -0.9747
 1149SOL     OW 4887   4.809   3.248   5.051  0.2875  0.2650 -0.3049
 1149SOL    HW1 4888   4.765   3.278   5.131 -2.2819  0.7798 -1.8216
 1149SOL    HW2 4889   4.812   3.326   4.995 -0.7092 -0.7513 -1.8445
 1150SOL     OW 4890   7.559   1.008   6.576  0.0131  0.4193 -0.1765
 1150SOL    HW1 4891   7.539   1.100   6.597 -1.4998  0.3603 -1.2224
 1150SOL    HW2 4892   7.585   1.010   6.484 -0.2211 -0.2304 -0.2573
 1151SOL     OW 4893   0.774   2.213   0.067  0.3220  0.4444 -0.0039
 1151SOL    HW1 4894   0.839   2.269   0.109  1.1202 -0.0108 -0.6156
 1151SOL    HW2 4895   0.690   2.247   0.099  0.8741  0.3154  1.7077
 1152SOL     OW 4896   0.345   7.181   6.622 -0.1500  0.5776 -0.4959
 1152SOL    HW1 4897   0.303   7.267   6.627  0.2545  0.9644 -2.5582
 1152SOL    HW2 4898   0.280   7.125   6.581 -0.3199 -0.0658  0.6109
 1153SOL     OW 4899   6.152   0.074   1.496 -0.4721 -0.1501  0.4930
 1153SOL    HW1 4900   6.240   0.042   1.476 -0.4973  0.4953 -0.7140
 1153SOL    HW2 4901   6.098   0.044   1.423 -0.7743  1.4210  0.0316
 1154SOL     OW 4902   0.781   5.020  11.179  0.1394 -0.2657  0.8280
 1154SOL    HW1 4903   0.861   5.058  11.142 -0.0134 -0.3100  0.4494
 1154SOL    HW2 4904   0.803   5.002  11.270  0.2021  0.7623  1.0211
 1155SOL     OW 4905   3.587   0.906   4.786  0.1910 -0.1881  0.0961
 1155SOL    HW1 4906   3.544   0.986   4.756  0.6851  0.1770  0.3453
 1155SOL    HW2 4907   3.652   0.887   4.718 -1.1672 -1.4465 -0.9316
 1156SOL     OW 4908   5.852   3.737   9.841  0.2209  0.3333  0.2667
 1156SOL    HW1 4909   5.825   3.666   9.783  0.5277 -0.2261  0.7852
 1156SOL    HW2 4910   5.795   3.810   9.819 -2.9374 -1.2432  2.3531
 1157SOL     OW 4911   6.127   0.713   6.399 -0.6622  0.0128 -0.4250
 1157SOL    HW1 4912   6.129   0.720   6.495 -0.3213  0.9270 -0.4933
 1157SOL    HW2 4913   6.054   0.770   6.373 -0.7938 -0.2833 -0.7069
 1158SOL     OW 4914   2.378   6.893   3.431 -0.4350  0.2536  0.1867
 1158SOL    HW1 4915   2.302   6.876   3.487 -0.5249 -2.6003 -0.6548
 1158SOL    HW2 4916   2.448   6.841   3.470 -0.0274 -0.3553 -1.3008
 1159SOL     OW 4917   4.895   5.157   9.355  0.7873 -0.6962 -0.1401
 1159SOL    HW1 4918   4.942   5.116   9.283  0.2506 -1.2869 -0.1602
 1159SOL    HW2 4919   4.963   5.198   9.408  1.3840 -1.9936  0.1218
 1160SOL     OW 4920   1.516   5.047  10.743  0.3735 -0.5611  0.9178
 1160SOL    HW1 4921   1.567   5.004  10.674  0.7613  0.3699  0.5973
 1160SOL    HW2 4922   1.558   5.133  10.753 -1.1726  0.2714  0.5884
 1161SOL     OW 4923   1.917   0.579   2.098  0.6128  0.2612 -0.5029
 1161SOL    HW1 4924   1.888   0.520   2.167 -0.3363  2.4299  1.1029
 1161SOL    HW2 4925   2.005   0.605   2.125  1.0163 -0.3698 -1.1857
 1162SOL     OW 4926   2.728   2.893   3.738  0.3308 -0.3971 -0.3114
 1162SOL    HW1 4927   2.761   2.853   3.819  0.5091 -0.5247 -0.4466
 1162SOL    HW2 4928   2.665   2.830   3.703 -0.3967  0.0371  0.1735
 1163SOL     OW 4929   4.267   3.150   0.915 -0.1519 -0.5025 -0.0509
 1163SOL    HW1 4930   4.312   3.234   0.912 -0.5233 -0.3094 -0.5103
 1163SOL    HW2 4931   4.291   3.107   0.833  0.0110 -0.8322  0.1679
 1164SOL     OW 4932   4.469   7.191   6.881 -0.1836  0.3940  0.2611
 1164SOL    HW1 4933   4.426   7.276   6.893 -0.4859  0.1196  1.1756
 1164SOL    HW2 4934   4.499   7.192   6.790 -2.2801  0.5203 -0.4767
 1165SOL     OW 4935   7.435   2.697   0.805  0.3565 -0.3662 -0.6312
 1165SOL    HW1 4936   7.440   2.628   0.739 -1.5315  0.2417 -1.4812
 1165SOL    HW2 4937   7.436   2.651   0.888 -1.3119 -1.4936 -1.1920
 1166SOL     OW 4938   3.034   5.622  12.082  0.0458 -0.5726 -0.3805
 1166SOL    HW1 4939   3.014   5.716  12.082 -0.4096 -0.6684 -0.2678
 1166SOL    HW2 4940   3.125   5.618  12.054 -0.3558 -0.2002 -1.8181
 1167SOL     OW 4941   4.825   5.145   3.820  0.4755 -0.0000  0.2772
 1167SOL    HW1 4942   4.755   5.201   3.788  0.1054 -0.7945 -0.3390
 1167SOL    HW2 4943   4.899   5.204   3.834 -0.3837  0.9024  1.2219
 1168SOL     OW 4944   4.934   1.320  12.097  0.5946  0.2440  0.0671
 1168SOL    HW1 4945   4.847   1.282  12.111  0.1707 -0.1232 -2.8820
 1168SOL    HW2 4946   4.984   1.249  12.057  2.1399  0.6324  1.2006
 1169SOL     OW 4947   4.223   4.776  11.468  0.0009 -0.0061 -0.0899
 1169SOL    HW1 4948   4.209   4.704  11.529 -2.1366 -1.0318 -1.6846
 1169SOL    HW2 4949   4.176   4.850  11.507  0.8528  0.1253  0.7425
 1170SOL     OW 4950   1.560   1.895   6.675 -0.1308  0.3345 -0.0055
 1170SOL    HW1 4951   1.562   1.929   6.586  0.6556  0.8564  0.2027
 1170SOL    HW2 4952   1.506   1.816   6.669  0.8968 -0.3232 -1.2002
 1171SOL     OW 4953   1.246   0.917   8.732 -0.1296  0.1017  0.2951
 1171SOL    HW1 4954   1.166   0.969   8.735  0.7032  1.4570 -0.1489
 1171SOL    HW2 4955   1.216   0.828   8.712 -1.6236  0.2792  1.5903
 1172SOL     OW 4956   0.699   1.251   6.308 -0.2116 -0.3174  0.6336
 1172SOL    HW1 4957   0.707   1.167   6.354 -2.7472 -0.7471  0.4372
 1172SOL    HW2 4958   0.653   1.308   6.370  0.0319  0.4033  0.1591
 1173SOL     OW 4959   3.990   2.614  11.345 -0.3079 -0.3913  0.3066
 1173SOL    HW1 4960   4.084   2.624  11.330 -0.6843  1.5430 -1.2813
 1173SOL    HW2 4961   3.969   2.528  11.308  1.0571 -1.6668  2.2949
 1174SOL     OW 4962   3.287   2.711   8.634  0.0627  0.5664 -0.4742
 1174SOL    HW1 4963   3.315   2.758   8.555 -0.6748  3.5829  0.9067
 1174SOL    HW2 4964   3.351   2.640   8.644  1.2631  1.2340 -2.7495
 1175SOL     OW 4965   2.726   2.578   6.181 -0.4070 -0.5389  0.1930
 1175SOL    HW1 4966   2.637   2.545   6.164 -0.6297  0.0165  0.2762
 1175SOL    HW2 4967   2.724   2.606   6.273 -0.0185 -0.9258  0.3211
 1176SOL     OW 4968   2.573   4.264   2.448  0.3233  0.0015 -0.5174
 1176SOL    HW1 4969   2.542   4.208   2.377  1.3244  0.0044 -0.9636
 1176SOL    HW2 4970   2.667   4.273   2.433  1.1961 -2.4881  2.4994
 1177SOL     OW 4971   1.848   2.781   5.528  0.2397 -0.4779 -0.1978
 1177SOL    HW1 4972   1.865   2.737   5.445  0.2787  1.1484 -1.0841
 1177SOL    HW2 4973   1.920   2.843   5.538  1.3090 -1.9051  2.0247
 1178SOL     OW 4974   1.769   6.774   8.002  0.3192  0.4250  0.1084
 1178SOL    HW1 4975   1.823   6.837   8.049  1.4035 -0.8525  0.6153
 1178SOL    HW2 4976   1.769   6.696   8.057 -0.6271 -0.1849 -0.7252
 1179SOL     OW 4977   2.183   0.095   3.800  0.3044  0.0366  1.0991
 1179SOL    HW1 4978   2.220   0.014   3.764 -0.3035  0.3618 -0.3279
 1179SOL    HW2 4979   2.179   0.155   3.725 -1.5134  0.5775  1.5861
 1180SOL     OW 4980   1.411   2.522   9.848 -0.0149  0.0363 -0.2803
 1180SOL    HW1 4981   1.413   2.569   9.932 -0.6412  0.5825 -0.5630
 1180SOL    HW2 4982   1.319   2.524   9.822  0.0365 -0.8934 -0.5638
 1181SOL     OW 4983   0.007   3.182   8.466  0.7479 -0.0539  0.3865
 1181SOL    HW1 4984  -0.028   3.199   8.553 -1.6234  1.3801 -0.7362
 1181SOL    HW2 4985   0.074   3.250   8.453  1.0086 -0.1883  1.0278
 1182SOL     OW 4986   2.373   7.004  10.193 -0.0671 -0.2608 -0.0153
 1182SOL    HW1 4987   2.352   6.925  10.144  0.2373  1.3926 -3.0968
 1182SOL    HW2 4988   2.292   7.027  10.239 -0.8604 -1.1301 -0.9389
 1183SOL     OW 4989   0.348   1.948   9.670  0.0977 -0.0219 -0.4522
 1183SOL    HW1 4990   0.431   1.925   9.628  0.1119  0.1627 -0.5241
 1183SOL    HW2 4991   0.316   1.865   9.707  0.0653 -0.1961 -0.8640
 1184SOL     OW 4992   5.470   7.096   3.703  0.6512 -0.1660 -0.6995
 1184SOL    HW1 4993   5.550   7.045   3.711  1.0812  0.6371  0.3847
 1184SOL    HW2 4994   5.416   7.048   3.641  1.6179 -1.1800 -0.7659
 1185SOL     OW 4995   4.822   1.021  10.100  0.0735 -0.4342 -0.5245
 1185SOL    HW1 4996   4.881   1.070  10.043  1.4542 -2.9727 -1.4275
 1185SOL    HW2 4997   4.869   0.941  10.120 -1.9635 -1.3150  1.0922
 1186SOL     OW 4998   6.658   5.939   2.256  0.0638  0.3228 -0.2327
 1186SOL    HW1 4999   6.751   5.919   2.246  0.1601  0.7219 -0.1592
 1186SOL    HW2 5000   6.642   5.933   2.351 -0.2447 -0.8425 -0.3406
 1187SOL     OW 5001   3.308   3.121   4.333 -0.5399  0.0226 -0.4689
 1187SOL    HW1 5002   3.234   3.125   4.393 -0.5940 -1.5403 -0.3902
 1187SOL    HW2 5003   3.341   3.210   4.330 -0.8098  0.2373  1.5415
 1188SOL     OW 5004   4.100   6.102   0.400 -0.6007  0.4812  0.6164
 1188SOL    HW1 5005   4.038   6.063   0.338  0.7570 -1.1932  0.2305
 1188SOL    HW2 5006   4.120   6.032   0.461  0.7311  1.0521  0.8659
 1189SOL     OW 5007   6.152   0.578   1.818 -0.0918  0.3184  0.3392
 1189SOL    HW1 5008   6.184   0.668   1.813  0.4056  0.2434  1.7141
 1189SOL    HW2 5009   6.057   0.586   1.827 -0.0343  0.7218  0.5952
 1190SOL     OW 5010   2.537   0.154   0.327 -0.3260 -0.1915  0.1696
 1190SOL    HW1 5011   2.604   0.087   0.335 -0.8266 -1.0149 -2.0523
 1190SOL    HW2 5012   2.454   0.106   0.331 -0.8148  0.6849  1.6753
 1191SOL     OW 5013   3.992   1.129   8.499 -0.2067 -0.2021 -0.1533
 1191SOL    HW1 5014   4.047   1.169   8.431  0.2105 -0.2366  0.1601
 1191SOL    HW2 5015   3.941   1.062   8.453 -0.4162  0.2328 -0.5535
 1192SOL     OW 5016   5.577   3.039   5.499  0.1089  0.3205 -0.2365
 1192SOL    HW1 5017   5.488   3.070   5.489  0.2064  0.3389 -1.1148
 1192SOL    HW2 5018   5.608   3.079   5.580 -0.8043 -0.0086  0.2865
 1193SOL     OW 5019   2.323   4.663   4.903 -0.1924 -0.0243  0.4047
 1193SOL    HW1 5020   2.376   4.610   4.843 -1.1831 -0.1147 -0.4172
 1193SOL    HW2 5021   2.369   4.658   4.987  0.6325 -0.8000 -0.0814
 1194SOL     OW 5022   3.105   4.713   2.120  0.3969 -0.0931  0.0468
 1194SOL    HW1 5023   3.197   4.697   2.141  0.1016 -0.4241  1.1467
 1194SOL    HW2 5024   3.057   4.650   2.173 -0.4367 -0.4203 -1.0686
 1195SOL     OW 5025   0.068   3.657   2.576  0.5577  0.4904 -0.0385
 1195SOL    HW1 5026   0.061   3.563   2.598 -0.5720 -0.1918 -2.8953
 1195SOL    HW2 5027  -0.023   3.688   2.579  1.0085  1.7693  1.7101
 1196SOL     OW 5028   3.005   3.941   0.279 -0.0217 -0.4143 -0.3214
 1196SOL    HW1 5029   2.981   3.883   0.351  2.3115 -0.4242  0.5363
 1196SOL    HW2 5030   3.023   4.025   0.321  0.1223 -0.0628 -1.0681
 1197SOL     OW 5031   2.899   6.708   9.557  0.1017 -0.4186 -0.1879
 1197SOL    HW1 5032   2.820   6.665   9.523 -0.0483 -0.4809  0.2281
 1197SOL    HW2 5033   2.941   6.641   9.611  0.0129 -0.1355  0.2390
 1198SOL     OW 5034   1.289   1.998   5.252 -0.1177  0.2117 -0.7311
 1198SOL    HW1 5035   1.251   2.073   5.206 -0.4544  0.4215 -0.1234
 1198SOL    HW2 5036   1.215   1.960   5.300 -0.0795 -0.8634 -1.4812
 1199SOL     OW 5037   4.992   1.371  10.484 -0.6626 -0.5137 -0.0557
 1199SOL    HW1 5038   4.926   1.352  10.418 -1.1240  1.2124 -0.1461
 1199SOL    HW2 5039   4.944   1.370  10.567 -0.4453 -0.9257  0.0680
 1200SOL     OW 5040   1.181   5.023   3.192  0.0306  0.0635 -0.4804
 1200SOL    HW1 5041   1.231   4.985   3.120  0.3953  1.8418 -1.2096
 1200SOL    HW2 5042   1.242   5.083   3.235 -0.4250 -0.3731  0.8428
 1201SOL     OW 5043   1.461   4.381  12.329  0.6114 -0.1081  0.1051
 1201SOL    HW1 5044   1.405   4.386  12.406  0.3717 -0.2291 -0.0623
 1201SOL    HW2 5045   1.440   4.297  12.289  1.2158 -0.3435  0.2783
 1202SOL     OW 5046   6.132   4.854   0.417 -0.5718 -0.0100  0.3139
 1202SOL    HW1 5047   6.065   4.819   0.476  1.4097 -0.8733  2.1930
 1202SOL    HW2 5048   6.214   4.843   0.465  0.9989  0.5424 -2.0844
 1203SOL     OW 5049   7.856   6.502   5.886 -0.3429 -0.2629 -0.3499
 1203SOL    HW1 5050   7.949   6.484   5.879  0.0296  1.0699  0.6742
 1203SOL    HW2 5051   7.815   6.417   5.900  0.7157 -0.8546 -0.8234
 1204SOL     OW 5052   5.470   2.845   9.981  0.4157  0.3699 -0.0725
 1204SOL    HW1 5053   5.423   2.811   9.905  1.6730  0.0187 -0.7208
 1204SOL    HW2 5054   5.530   2.910   9.945  0.2902  0.9655  0.7656
 1205SOL     OW 5055   5.107   2.167  11.909  1.1129  0.5612  0.4659
 1205SOL    HW1 5056   5.100   2.131  11.997 -0.1318 -1.7688 -0.4980
 1205SOL    HW2 5057   5.058   2.106  11.854  1.1018  2.4018 -1.7308
 1206SOL     OW 5058   3.323   1.534   9.607 -0.5234  0.2219 -0.1781
 1206SOL    HW1 5059   3.315   1.608   9.667  1.3172  1.1824 -1.0159
 1206SOL    HW2 5060   3.417   1.524   9.594 -0.6834 -2.6377  0.2950
 1207SOL     OW 5061   4.884   4.318   8.956  0.2985 -0.2112  0.7020
 1207SOL    HW1 5062   4.884   4.379   8.882  1.7958 -1.1792 -0.1490
 1207SOL    HW2 5063   4.976   4.303   8.974 -0.0030 -2.7987  0.3825
 1208SOL     OW 5064   5.458   7.349   8.508  0.0286  0.1661  0.3305
 1208SOL    HW1 5065   5.457   7.255   8.490 -0.3698  0.2803 -0.3040
 1208SOL    HW2 5066   5.520   7.384   8.444  2.5089  0.0098  2.4832
 1209SOL     OW 5067   6.410   2.600   8.041 -0.3533 -0.6060 -0.0497
 1209SOL    HW1 5068   6.355   2.664   7.995 -0.6960 -1.5874 -1.0415
 1209SOL    HW2 5069   6.360   2.577   8.119 -0.3719  0.0956  0.1475
 1210SOL     OW 5070   5.935   1.152  11.221 -0.0822  0.0841  0.1554
 1210SOL    HW1 5071   5.880   1.178  11.296 -0.9145  0.1247 -0.4562
 1210SOL    HW2 5072   5.998   1.091  11.258 -0.5338  0.0429  0.8872
 1211SOL     OW 5073   7.434   6.813   5.323 -0.2133  0.0483  0.1519
 1211SOL    HW1 5074   7.497   6.833   5.392  1.0551 -0.2674 -0.8706
 1211SOL    HW2 5075   7.359   6.775   5.369  1.5383 -2.4177  1.2198
 1212SOL     OW 5076   0.174   3.649   8.457  0.0304  0.7702 -0.0059
 1212SOL    HW1 5077   0.100   3.709   8.447 -1.6388 -1.2331 -0.3049
 1212SOL    HW2 5078   0.158   3.605   8.541  0.2160 -0.5311 -0.6356
 1213SOL     OW 5079   6.431   5.417   7.497  0.1250  0.1692 -0.3466
 1213SOL    HW1 5080   6.514   5.385   7.532  0.2515  0.8174 -0.0299
 1213SOL    HW2 5081   6.455   5.494   7.445 -0.1205 -0.5037 -1.4818
 1214SOL     OW 5082   6.655   5.431   0.648  0.1934  0.2128  0.1634
 1214SOL    HW1 5083   6.698   5.429   0.734 -0.0639  0.3747  0.2958
 1214SOL    HW2 5084   6.589   5.363   0.653  0.6015 -0.2130 -0.1320
 1215SOL     OW 5085   0.053   4.349   9.108 -0.0039  0.0597  0.0938
 1215SOL    HW1 5086   0.006   4.267   9.122  0.5151  0.0157  1.9196
 1215SOL    HW2 5087   0.145   4.327   9.125  0.3811  0.6556 -1.1190
 1216SOL     OW 5088   3.829   4.035  10.742  0.5148 -0.0559  0.4184
 1216SOL    HW1 5089   3.900   4.099  10.733  1.0176 -0.6937 -0.3678
 1216SOL    HW2 5090   3.774   4.069  10.812  1.8598  0.2287  1.3668
 1217SOL     OW 5091   4.413   1.490   8.604 -0.4941 -0.2290  0.3285
 1217SOL    HW1 5092   4.488   1.542   8.576 -1.3635 -0.1054 -1.9662
 1217SOL    HW2 5093   4.363   1.549   8.661  0.5496  0.0640  0.9639
 1218SOL     OW 5094   6.787   5.758  10.783  0.7298 -0.4213 -0.1165
 1218SOL    HW1 5095   6.869   5.729  10.825 -0.1602  0.9796  2.8689
 1218SOL    HW2 5096   6.732   5.787  10.856 -2.1350 -0.4871 -2.0948
 1219SOL     OW 5097   3.623   0.953   0.532  0.2386 -0.1463 -0.4552
 1219SOL    HW1 5098   3.619   0.971   0.438 -0.3028  1.0422 -0.2214
 1219SOL    HW2 5099   3.698   1.005   0.563 -0.9464  1.2728  0.1240
 1220SOL     OW 5100   6.716   0.510   2.588 -0.5980 -0.5691  0.2709
 1220SOL    HW1 5101   6.773   0.436   2.605  0.5592  0.4033  0.7777
 1220SOL    HW2 5102   6.654   0.478   2.522  0.1231 -1.8452  0.1824
 1221SOL     OW 5103   6.128   1.384   7.345  0.7109  0.3181 -0.3277
 1221SOL    HW1 5104   6.100   1.299   7.379  2.4531 -0.6143 -1.0777
 1221SOL    HW2 5105   6.209   1.365   7.298  0.2384  2.1221 -1.9866
 1222SOL     OW 5106   0.575   3.996   6.016  0.2440 -0.0551  0.7857
 1222SOL    HW1 5107   0.657   4.035   5.985 -0.0637 -0.2448 -0.3415
 1222SOL    HW2 5108   0.507   4.054   5.982 -0.3078 -2.0936 -1.9893
 1223SOL     OW 5109   4.256   5.811  10.130 -0.2832  0.4017  0.0923
 1223SOL    HW1 5110   4.247   5.753  10.055 -3.1997  0.2783  0.4127
 1223SOL    HW2 5111   4.332   5.865  10.109 -0.7082  0.0825 -2.7547
 1224SOL     OW 5112   1.190   3.189   7.505  0.7375  0.4630  0.3764
 1224SOL    HW1 5113   1.207   3.283   7.519  0.2847  0.3633  1.7202
 1224SOL    HW2 5114   1.110   3.172   7.555  2.2387 -1.1927  2.3415
 1225SOL     OW 5115   1.247   7.718   1.018  0.7197 -0.1672 -0.1045
 1225SOL    HW1 5116   1.284   7.631   1.033  1.0562 -0.3484 -1.7471
 1225SOL    HW2 5117   1.323   7.774   1.004  0.5000  0.3936  0.8613
 1226SOL     OW 5118   3.002   2.466   7.728  0.3116 -0.6594 -0.2263
 1226SOL    HW1 5119   2.983   2.554   7.697  1.6002  0.2293  1.2849
 1226SOL    HW2 5120   3.042   2.421   7.653  0.6831  0.4357 -0.6986
 1227SOL     OW 5121   4.668   2.413   6.481  0.8005 -0.1035 -0.1492
 1227SOL    HW1 5122   4.710   2.361   6.550 -0.3428  0.2591  0.8507
 1227SOL    HW2 5123   4.616   2.349   6.432  0.3562 -0.1191  0.3295
 1228SOL     OW 5124   6.818   7.912   3.043  0.8558  0.1561 -0.0198
 1228SOL    HW1 5125   6.830   7.822   3.072 -0.1357 -0.5301 -1.5893
 1228SOL    HW2 5126   6.760   7.951   3.109  0.9457 -0.4768  0.4447
 1229SOL     OW 5127   7.899   3.051   2.114 -0.4698 -0.6178  0.5565
 1229SOL    HW1 5128   7.947   2.970   2.095 -0.8457 -0.6601 -0.2622
 1229SOL    HW2 5129   7.963   3.121   2.102 -0.9590 -0.5378 -2.1782
 1230SOL     OW 5130   2.370   3.520   2.018 -0.0970  0.3424  0.2795
 1230SOL    HW1 5131   2.278   3.503   2.041 -0.2315  1.1491  0.3741
 1230SOL    HW2 5132   2.415   3.439   2.039 -0.6341  0.2476  1.1229
 1231SOL     OW 5133   0.567   6.964  10.502  0.3818 -0.3204 -0.3819
 1231SOL    HW1 5134   0.589   7.013  10.422 -2.5742  1.1075 -0.4733
 1231SOL    HW2 5135   0.514   6.891  10.471  1.7164 -1.5082  0.0771
 1232SOL     OW 5136   7.805   4.485   6.954 -0.4686  0.2241 -0.0593
 1232SOL    HW1 5137   7.798   4.397   6.919 -1.8467  0.1848  0.2250
 1232SOL    HW2 5138   7.828   4.539   6.879 -0.0842 -0.3160 -0.3316
 1233SOL     OW 5139   6.559   1.610   6.951 -0.5555  0.3144 -0.2781
 1233SOL    HW1 5140   6.598   1.694   6.973  2.3196 -1.1435  0.7200
 1233SOL    HW2 5141   6.503   1.589   7.025  1.6403 -0.2397  1.3332
 1234SOL     OW 5142   2.888   6.993   3.178  0.6931 -0.3304 -0.2300
 1234SOL    HW1 5143   2.913   6.917   3.126  1.0829 -0.4241  0.0900
 1234SOL    HW2 5144   2.798   6.975   3.206  1.0732 -1.0599  0.5435
 1235SOL     OW 5145   1.583   2.090   6.858  0.0322  0.1944 -0.8898
 1235SOL    HW1 5146   1.504   2.143   6.847 -0.6481 -0.5603  0.1543
 1235SOL    HW2 5147   1.581   2.029   6.784  0.8553  1.6193 -2.1355
 1236SOL     OW 5148   1.883   2.904   9.629  0.0194 -0.2823 -0.7609
 1236SOL    HW1 5149   1.809   2.962   9.649  0.9038  1.0555 -1.1945
 1236SOL    HW2 5150   1.882   2.839   9.698 -1.1381  0.1295 -0.3593
 1237SOL     OW 5151   1.680   7.835   5.379 -0.4639 -0.1299  0.3366
 1237SOL    HW1 5152   1.741   7.842   5.452  0.2230  1.7386 -0.3473
 1237SOL    HW2 5153   1.595   7.820   5.420 -0.2187  1.6311  1.6080
 1238SOL     OW 5154   7.519   6.513   0.729  0.0963 -0.0537  0.6157
 1238SOL    HW1 5155   7.523   6.418   0.739 -1.6997 -0.1457  0.9501
 1238SOL    HW2 5156   7.545   6.530   0.639  0.1273 -0.8933  0.4621
 1239SOL     OW 5157   1.573   6.552   2.847 -0.0677  0.0106  0.2508
 1239SOL    HW1 5158   1.560   6.541   2.942 -0.5425  0.7981  0.2891
 1239SOL    HW2 5159   1.667   6.542   2.834  0.0476  0.2445  0.8593
 1240SOL     OW 5160   5.467   3.536   8.567 -0.8872 -0.5079 -0.2186
 1240SOL    HW1 5161   5.478   3.628   8.543  0.0954 -0.8279 -1.0861
 1240SOL    HW2 5162   5.373   3.525   8.578 -1.2758  0.0762 -2.4113
 1241SOL     OW 5163   7.249   0.746   3.203 -0.0660  0.2417  0.2453
 1241SOL    HW1 5164   7.339   0.724   3.228  0.3284  0.2643 -1.1094
 1241SOL    HW2 5165   7.256   0.832   3.162 -0.8328  0.5969  0.8296
 1242SOL     OW 5166   6.997   0.428   7.732  0.1887 -0.2113 -0.1664
 1242SOL    HW1 5167   7.075   0.408   7.785  0.5608 -2.4119 -1.4431
 1242SOL    HW2 5168   6.932   0.364   7.760 -0.5705  0.4534 -0.3876
 1243SOL     OW 5169   6.786   0.434   1.512 -0.2728 -0.0339  0.3463
 1243SOL    HW1 5170   6.706   0.444   1.461  0.4819  2.4062 -0.5355
 1243SOL    HW2 5171   6.852   0.410   1.448 -0.0708 -0.8971  0.8723
 1244SOL     OW 5172   6.981   2.632   6.577  0.1322 -0.1193 -0.2573
 1244SOL    HW1 5173   7.011   2.650   6.487  1.6180 -0.3836  0.1633
 1244SOL    HW2 5174   6.966   2.538   6.579 -2.1467  0.1755 -0.8465
 1245SOL     OW 5175   0.708   5.670   8.785 -0.4640 -0.3400 -0.3435
 1245SOL    HW1 5176   0.655   5.680   8.706  0.1771  0.8214 -0.6500
 1245SOL    HW2 5177   0.742   5.757   8.803  1.0319 -0.9657  0.0583
 1246SOL     OW 5178   6.194   4.916   4.700  0.6759 -0.3092 -0.0106
 1246SOL    HW1 5179   6.242   4.834   4.703 -0.7376 -1.2133 -0.9640
 1246SOL    HW2 5180   6.165   4.925   4.610 -0.3801  0.5217  0.3814
 1247SOL     OW 5181   0.152   1.806   5.444  0.0091 -0.6154 -0.2485
 1247SOL    HW1 5182   0.213   1.803   5.370 -0.2186 -1.2274 -0.4191
 1247SOL    HW2 5183   0.110   1.720   5.444 -2.2923  0.4021 -1.3579
 1248SOL     OW 5184   6.780   5.066   2.596  0.2438  0.0205  0.3153
 1248SOL    HW1 5185   6.787   5.070   2.501 -1.6224  2.5593  0.2033
 1248SOL    HW2 5186   6.871   5.068   2.626  0.8682 -0.7322 -1.3710
 1249SOL     OW 5187   7.191   1.055   5.550 -0.0690  0.1239 -1.0390
 1249SOL    HW1 5188   7.096   1.069   5.548  0.0011  0.5188 -1.8269
 1249SOL    HW2 5189   7.206   1.009   5.632 -0.7962  1.1726 -0.2853
 1250SOL     OW 5190   1.237   7.233   6.921 -0.1041 -0.0861 -0.0194
 1250SOL    HW1 5191   1.325   7.261   6.896 -0.6552  0.5099 -1.3798
 1250SOL    HW2 5192   1.248   7.198   7.009  1.2865  1.0239  0.2957
 1251SOL     OW 5193   2.028   7.379  11.216  0.6336  0.0558 -0.1263
 1251SOL    HW1 5194   2.056   7.427  11.294  0.4403 -1.1898  0.7265
 1251SOL    HW2 5195   1.942   7.345  11.237  1.1459 -1.4582 -0.3321
 1252SOL     OW 5196   0.114   0.544   7.249 -0.3398 -0.1765 -0.3451
 1252SOL    HW1 5197   0.128   0.587   7.333 -1.7550 -0.6833  0.1852
 1252SOL    HW2 5198   0.194   0.560   7.199 -0.4105  2.1924  0.1979
 1253SOL     OW 5199   7.409   4.174   0.547  0.5934  0.2456  0.2445
 1253SOL    HW1 5200   7.441   4.107   0.486  1.6549  0.8625  0.1091
 1253SOL    HW2 5201   7.467   4.167   0.623  0.1903  0.4627  0.5735
 1254SOL     OW 5202   5.549   3.459   3.340  0.2762 -0.3486 -0.3796
 1254SOL    HW1 5203   5.516   3.534   3.390  1.9123 -0.3284  0.7800
 1254SOL    HW2 5204   5.553   3.490   3.250  2.5783  1.6928  0.2935
 1255SOL     OW 5205   6.395   5.779  10.440  0.2301  1.2471 -0.2992
 1255SOL    HW1 5206   6.461   5.787  10.371  0.1095  1.0283 -0.4396
 1255SOL    HW2 5207   6.346   5.700  10.418 -0.2321  1.5361 -0.3250
 1256SOL     OW 5208   7.824   4.273   6.789 -0.0811 -0.0476  0.5239
 1256SOL    HW1 5209   7.866   4.189   6.772 -0.6115 -0.1308 -0.4365
 1256SOL    HW2 5210   7.857   4.331   6.721  1.6083  1.0422  2.1643
 1257SOL     OW 5211   0.337   0.225   7.859  0.3122 -0.1018 -0.1711
 1257SOL    HW1 5212   0.257   0.185   7.824  1.0752 -2.3297  0.5167
 1257SOL    HW2 5213   0.325   0.319   7.843 -2.1944 -0.4178 -0.5612
 1258SOL     OW 5214   6.379   6.323   4.701 -0.1673  0.2679 -0.7424
 1258SOL    HW1 5215   6.322   6.379   4.753 -1.1155 -0.8956 -0.4580
 1258SOL    HW2 5216   6.422   6.266   4.765 -1.0028 -0.8740 -1.1617
 1259SOL     OW 5217   5.367   7.917   4.285  0.0452  0.2477 -0.5613
 1259SOL    HW1 5218   5.452   7.893   4.247  0.2756 -0.1253  0.1936
 1259SOL    HW2 5219   5.376   8.011   4.302  0.2309  0.2517 -0.6655
 1260SOL     OW 5220   5.174   5.471   4.965 -0.3135  0.7277 -1.2698
 1260SOL    HW1 5221   5.182   5.418   5.044 -0.7656  1.4574 -0.7182
 1260SOL    HW2 5222   5.263   5.502   4.947 -0.4073  1.6585 -0.2524
 1261SOL     OW 5223   1.395   6.763   9.785  0.1627 -0.6240 -0.3339
 1261SOL    HW1 5224   1.444   6.710   9.847  0.5044  1.4045  1.2395
 1261SOL    HW2 5225   1.462   6.816   9.741 -0.3355  0.0035 -0.3499
 1262SOL     OW 5226   6.298   0.313   9.202  0.7882  0.1380 -0.2703
 1262SOL    HW1 5227   6.369   0.289   9.261  0.3963 -0.7051 -0.1253
 1262SOL    HW2 5228   6.276   0.232   9.156 -2.2074 -0.4809  1.9298
 1263SOL     OW 5229   6.142   5.947   1.286 -0.3699  0.1677 -0.3741
 1263SOL    HW1 5230   6.225   5.935   1.239 -1.0040 -0.6735 -1.3193
 1263SOL    HW2 5231   6.075   5.928   1.220 -1.3400  1.5006  0.1807
 1264SOL     OW 5232   2.750   4.338  11.077  0.2337  0.1474  0.1802
 1264SOL    HW1 5233   2.759   4.337  10.982  1.7188  0.5919  0.2777
 1264SOL    HW2 5234   2.701   4.259  11.098 -0.1212  0.0528 -0.9515
 1265SOL     OW 5235   4.295   4.777   0.336 -0.8173 -0.1076  0.4734
 1265SOL    HW1 5236   4.339   4.808   0.415 -1.1231  0.6652  0.3541
 1265SOL    HW2 5237   4.319   4.841   0.269 -1.5936 -0.0276  0.2568
 1266SOL     OW 5238   5.047   6.740   1.680 -0.4059 -0.3323 -0.3461
 1266SOL    HW1 5239   4.970   6.795   1.696  0.6693  1.8493 -2.1182
 1266SOL    HW2 5240   5.025   6.690   1.601 -0.1782  0.0129 -0.6336
 1267SOL     OW 5241   0.211   0.361   8.471  0.0586  0.0287 -0.0896
 1267SOL    HW1 5242   0.161   0.437   8.442 -0.5197  0.2824  1.4753
 1267SOL    HW2 5243   0.296   0.397   8.498  0.7774 -0.2720 -1.8384
 1268SOL     OW 5244   5.220   3.647   5.519  0.0320  0.5457 -0.6394
 1268SOL    HW1 5245   5.246   3.616   5.606 -3.9856  0.6419  0.7836
 1268SOL    HW2 5246   5.279   3.721   5.502  1.1257  0.3501  1.8639
 1269SOL     OW 5247   1.156   6.576   4.820  0.1648  0.2173  0.1128
 1269SOL    HW1 5248   1.207   6.631   4.760 -0.0814  0.1684 -0.1493
 1269SOL    HW2 5249   1.188   6.598   4.907 -0.0331  0.8878  0.0225
 1270SOL     OW 5250   0.064   3.627   6.537  0.4736  0.0585  0.3425
 1270SOL    HW1 5251   0.114   3.553   6.502  0.8430  1.0444 -1.2996
 1270SOL    HW2 5252   0.105   3.704   6.499  0.4953  1.2021  2.5211
 1271SOL     OW 5253   5.432   7.736   4.494  0.5548 -0.3390  0.2885
 1271SOL    HW1 5254   5.527   7.730   4.499  0.6477  0.5594 -0.3558
 1271SOL    HW2 5255   5.414   7.788   4.416 -0.4109  1.3147  1.5555
 1272SOL     OW 5256   2.402   0.405  12.031 -0.1588 -0.0414  0.1420
 1272SOL    HW1 5257   2.496   0.390  12.040 -0.3049  0.5168  3.7332
 1272SOL    HW2 5258   2.361   0.327  12.067 -1.2170 -0.7681 -2.3671
 1273SOL     OW 5259   4.714   6.348   1.612 -0.2031  0.3536  0.1752
 1273SOL    HW1 5260   4.659   6.311   1.544 -0.2402  3.1401 -1.4480
 1273SOL    HW2 5261   4.662   6.418   1.650  0.3721 -0.2161  2.1389
 1274SOL     OW 5262   1.173   1.807  12.198  0.5686 -0.3974  0.6795
 1274SOL    HW1 5263   1.248   1.865  12.210 -0.3436  1.3395 -1.2202
 1274SOL    HW2 5264   1.195   1.755  12.121 -0.4672  0.7446 -0.4293
 1275SOL     OW 5265   4.846   6.109   2.249  0.3168  0.1852 -0.1898
 1275SOL    HW1 5266   4.917   6.168   2.225 -0.3464  1.1979  0.2497
 1275SOL    HW2 5267   4.882   6.054   2.319  0.6296  0.7700  0.1116
 1276SOL     OW 5268   1.591   1.368   5.311 -0.4405  0.0268  0.1095
 1276SOL    HW1 5269   1.531   1.442   5.299  0.0032  0.3908  0.0815
 1276SOL    HW2 5270   1.659   1.382   5.245 -0.9123 -0.9936 -0.6212
 1277SOL     OW 5271   2.679   3.290   0.371  0.3418  0.0351  0.0918
 1277SOL    HW1 5272   2.609   3.345   0.334  0.9345  0.2197 -0.7928
 1277SOL    HW2 5273   2.759   3.320   0.326  0.7030 -1.4704 -0.3380
 1278SOL     OW 5274   4.404   0.338   0.340  0.1318 -0.1358 -0.7091
 1278SOL    HW1 5275   4.457   0.343   0.420  0.9608 -0.0802 -1.2435
 1278SOL    HW2 5276   4.385   0.430   0.318 -1.0444 -0.1878  0.0207
 1279SOL     OW 5277   6.035   6.885  10.846  0.2688 -0.1324 -0.2429
 1279SOL    HW1 5278   5.968   6.816  10.850 -0.6065  0.7080 -0.1707
 1279SOL    HW2 5279   6.037   6.911  10.754 -0.0495  0.3613 -0.1154
 1280SOL     OW 5280   6.886   0.995  11.623 -0.2267  0.7796  0.9276
 1280SOL    HW1 5281   6.870   1.037  11.707  0.0481 -0.2914  1.5301
 1280SOL    HW2 5282   6.957   0.934  11.639 -0.6125  0.0798  0.0756
 1281SOL     OW 5283   1.394   4.014   3.512 -0.1325  0.2742  0.4167
 1281SOL    HW1 5284   1.390   3.921   3.489  0.1554  0.6184 -1.0752
 1281SOL    HW2 5285   1.458   4.019   3.583  0.0351 -0.6180  0.3307
 1282SOL     OW 5286   0.476   7.920  10.961  0.0087  0.3122  0.4959
 1282SOL    HW1 5287   0.481   8.015  10.971  2.4411  0.1687  1.1003
 1282SOL    HW2 5288   0.512   7.885  11.043 -1.2698 -1.1729  0.4800
 1283SOL     OW 5289   5.997   7.228   4.434 -0.3575  0.3480  0.1893
 1283SOL    HW1 5290   5.973   7.199   4.346  2.4918  0.0762 -0.5945
 1283SOL    HW2 5291   5.957   7.315   4.443 -1.7834 -0.1810 -0.8225
 1284SOL     OW 5292   7.081   3.084   0.877 -0.2898 -0.1230 -0.1097
 1284SOL    HW1 5293   7.117   3.167   0.907  0.8280 -0.7154  0.2246
 1284SOL    HW2 5294   7.074   3.030   0.955  0.7887 -0.9927 -0.5910
 1285SOL     OW 5295   6.402   0.341   4.468  0.4268  0.3984  0.5501
 1285SOL    HW1 5296   6.395   0.253   4.506 -2.6963  0.7916  1.1597
 1285SOL    HW2 5297   6.429   0.325   4.377  0.3725 -1.1475  0.7712
 1286SOL     OW 5298   5.229   3.140   0.455  0.2371  0.1289 -0.4224
 1286SOL    HW1 5299   5.227   3.048   0.482  0.4831  0.2741  0.1047
 1286SOL    HW2 5300   5.137   3.167   0.459  0.1742 -0.0689 -0.4953
 1287SOL     OW 5301   2.081   7.937   2.809  0.2536 -0.0582 -0.0686
 1287SOL    HW1 5302   2.127   7.921   2.727 -1.1696 -0.6655 -0.7845
 1287SOL    HW2 5303   2.075   8.033   2.815  0.4680 -0.0083 -0.6196
 1288SOL     OW 5304   0.741   6.102  11.478 -0.0520 -0.0472  0.3848
 1288SOL    HW1 5305   0.675   6.111  11.410 -0.1272 -0.9399  0.3373
 1288SOL    HW2 5306   0.759   6.192  11.505 -1.0413  0.2238  0.1753
 1289SOL     OW 5307   5.252   2.842   5.832 -0.1990 -0.2020 -0.5880
 1289SOL    HW1 5308   5.283   2.788   5.759 -0.2196 -1.0022 -0.0124
 1289SOL    HW2 5309   5.216   2.920   5.790 -2.2502 -1.5930 -1.6002
 1290SOL     OW 5310   3.329   7.164   6.277 -0.3362  0.5098 -0.4163
 1290SOL    HW1 5311   3.311   7.180   6.369  2.4484  0.5813  0.2139
 1290SOL    HW2 5312   3.368   7.076   6.275 -2.0945 -0.3134 -1.8369
 1291SOL     OW 5313   6.105   7.853   3.208  0.0976  0.0043  0.0590
 1291SOL    HW1 5314   6.126   7.839   3.301 -0.9605 -0.4127  0.2484
 1291SOL    HW2 5315   6.072   7.942   3.204  1.0315  0.3602 -0.0960
 1292SOL     OW 5316   1.475   0.970   8.989 -0.4214 -0.1188 -0.2390
 1292SOL    HW1 5317   1.506   0.999   9.075  0.4863  1.6530 -1.1035
 1292SOL    HW2 5318   1.553   0.932   8.947 -0.3471  0.8494 -1.0000
 1293SOL     OW 5319   7.867   3.216   9.848 -0.0166 -0.1636 -0.3153
 1293SOL    HW1 5320   7.842   3.306   9.822  0.2232 -1.0895 -4.5832
 1293SOL    HW2 5321   7.802   3.191   9.913 -2.0775  2.0831 -1.3413
 1294SOL     OW 5322   1.675   5.710   4.334  0.3804 -0.0748  0.1067
 1294SOL    HW1 5323   1.642   5.700   4.423  1.0665  0.0431  0.3829
 1294SOL    HW2 5324   1.597   5.708   4.279  0.0089 -0.9417  0.6445
 1295SOL     OW 5325   0.695   2.514  10.282  0.4654  0.7579 -0.3428
 1295SOL    HW1 5326   0.790   2.506  10.293  0.3795  0.8249  0.5847
 1295SOL    HW2 5327   0.666   2.424  10.266  0.7328  0.8005 -1.0868
 1296SOL     OW 5328   1.249   5.793   3.795  0.6703  0.7980 -0.2306
 1296SOL    HW1 5329   1.229   5.887   3.798  1.8677  1.0455  1.2838
 1296SOL    HW2 5330   1.180   5.753   3.849  0.6313  0.9028 -0.2021
 1297SOL     OW 5331   6.101   7.434   5.541 -0.0759 -0.1613  0.0272
 1297SOL    HW1 5332   6.061   7.384   5.470 -0.3477  0.7751 -0.4954
 1297SOL    HW2 5333   6.077   7.386   5.621  0.7636 -1.5773 -0.5282
 1298SOL     OW 5334   5.738   6.243   8.390  0.1362  0.3540 -0.0359
 1298SOL    HW1 5335   5.725   6.189   8.468 -2.1624 -0.6454 -1.0194
 1298SOL    HW2 5336   5.819   6.210   8.351  0.6298  0.0208  1.2185
 1299SOL     OW 5337   7.036   3.967   1.150 -0.4349 -0.0337 -0.3707
 1299SOL    HW1 5338   7.042   4.017   1.068 -1.8245  1.6286  0.4573
 1299SOL    HW2 5339   7.009   3.880   1.123  0.1097  0.1912 -1.7454
 1300SOL     OW 5340   4.729   3.780  11.088 -0.0643 -0.0116  0.0220
 1300SOL    HW1 5341   4.647   3.824  11.069 -0.0814 -0.4104 -0.8637
 1300SOL    HW2 5342   4.738   3.714  11.020  1.2743  0.4193 -0.2507
 1301SOL     OW 5343   6.659   3.736   2.772  0.0980 -0.0554  0.0393
 1301SOL    HW1 5344   6.653   3.690   2.856  0.1352 -0.9829 -0.4559
 1301SOL    HW2 5345   6.649   3.668   2.707  0.8457  0.5475 -0.7268
 1302SOL     OW 5346   2.797   0.042   9.580  0.6597  0.4685 -0.0065
 1302SOL    HW1 5347   2.860   0.008   9.516 -0.5487  0.1521 -1.0833
 1302SOL    HW2 5348   2.761   0.121   9.539 -1.5493 -0.7841 -0.6946
 1303SOL     OW 5349   2.897   4.059  11.573 -0.5847 -0.2519  0.6248
 1303SOL    HW1 5350   2.870   4.151  11.580 -0.1965 -0.0736 -0.1611
 1303SOL    HW2 5351   2.925   4.036  11.662  0.7914  0.8617  0.5095
 1304SOL     OW 5352   3.316   4.147   2.767  0.3109 -0.2309 -0.1202
 1304SOL    HW1 5353   3.261   4.070   2.750 -0.1340  0.4301 -1.8122
 1304SOL    HW2 5354   3.405   4.112   2.769  0.0531 -0.9102 -0.0510
 1305SOL     OW 5355   4.782   1.335   2.041 -0.1698 -0.5008  0.0153
 1305SOL    HW1 5356   4.818   1.381   1.965 -0.6594  0.8301  0.5477
 1305SOL    HW2 5357   4.694   1.309   2.014 -1.3474  2.2432  0.9055
 1306SOL     OW 5358   2.614   5.241   5.939 -0.5039  0.4691 -0.7848
 1306SOL    HW1 5359   2.651   5.163   5.979 -0.9285 -0.2041 -1.6768
 1306SOL    HW2 5360   2.656   5.314   5.985  0.4392 -0.2748 -0.4513
 1307SOL     OW 5361   2.585   3.273   6.520 -0.2442 -0.0178 -0.3195
 1307SOL    HW1 5362   2.594   3.228   6.604  0.4310  1.4225  0.4166
 1307SOL    HW2 5363   2.627   3.358   6.533 -4.1209  2.1783 -0.6040
 1308SOL     OW 5364   6.441   1.777   8.885  0.0908 -0.1387 -0.2373
 1308SOL    HW1 5365   6.355   1.747   8.915 -0.5698  1.2092 -0.6813
 1308SOL    HW2 5366   6.491   1.790   8.965  0.4980 -2.5562 -0.0267
 1309SOL     OW 5367   6.573   2.260   4.506  0.1905 -0.4864 -0.2146
 1309SOL    HW1 5368   6.528   2.192   4.555 -1.4426  0.5202 -0.2266
 1309SOL    HW2 5369   6.543   2.342   4.546  2.2000  0.2430 -0.1137
 1310SOL     OW 5370   0.071   3.432   6.279  0.4120 -0.0456  0.2351
 1310SOL    HW1 5371   0.112   3.478   6.206  1.8246 -0.2465  0.8710
 1310SOL    HW2 5372  -0.022   3.431   6.257  0.7488  0.2708 -1.3462
 1311SOL     OW 5373   3.380   4.114   7.570  0.0890 -0.2832 -0.2719
 1311SOL    HW1 5374   3.425   4.174   7.511 -0.0783  0.8503  0.7034
 1311SOL    HW2 5375   3.287   4.136   7.561  0.1342  0.7384  1.2140
 1312SOL     OW 5376   6.785   2.080   5.650  0.6732  0.3446  0.3831
 1312SOL    HW1 5377   6.828   1.995   5.638 -0.2639 -0.1508  0.3975
 1312SOL    HW2 5378   6.820   2.134   5.579 -0.7562 -0.9033 -1.3960
 1313SOL     OW 5379   0.454   3.950   7.451  0.5053  0.5778 -0.3607
 1313SOL    HW1 5380   0.503   3.916   7.525 -0.5739 -1.5928 -0.5563
 1313SOL    HW2 5381   0.518   3.955   7.380  0.7660 -0.8820 -0.2522
 1314SOL     OW 5382   7.750   7.086   7.455 -0.0089 -0.2243  0.2967
 1314SOL    HW1 5383   7.656   7.069   7.469  0.2018 -0.2525  1.9918
 1314SOL    HW2 5384   7.754   7.142   7.378 -1.4695  0.3124  0.5837
 1315SOL     OW 5385   1.278   2.192  11.419 -0.2285 -0.3467  0.3385
 1315SOL    HW1 5386   1.253   2.254  11.487 -1.5813 -0.5778  0.0896
 1315SOL    HW2 5387   1.330   2.243  11.357  0.3262  0.0553  1.1311
 1316SOL     OW 5388   5.930   0.489   1.617  0.3355 -0.2019  0.2536
 1316SOL    HW1 5389   5.999   0.549   1.591  0.2035  0.5909  1.6367
 1316SOL    HW2 5390   5.973   0.404   1.627  0.6638 -0.2008 -0.9867
 1317SOL     OW 5391   2.094   7.176   4.968  0.7851 -0.1461 -0.6917
 1317SOL    HW1 5392   2.004   7.207   4.963  0.8970  0.0338 -2.6770
 1317SOL    HW2 5393   2.145   7.245   4.925  1.7263 -0.6760 -0.4467
 1318SOL     OW 5394   0.157   6.471  10.055 -0.4552 -0.1330  0.4853
 1318SOL    HW1 5395   0.137   6.407   9.986 -0.7570  1.2193 -0.7436
 1318SOL    HW2 5396   0.249   6.492  10.042 -0.6846  0.6391  0.0079
 1319SOL     OW 5397   1.101   2.816   7.691 -0.0015 -0.0646 -0.1646
 1319SOL    HW1 5398   1.098   2.721   7.681  1.0483  0.0049 -1.3833
 1319SOL    HW2 5399   1.083   2.850   7.604  0.7927  0.8308  0.0037
 1320SOL     OW 5400   4.597   4.549  11.201 -0.3597  0.0653  0.3763
 1320SOL    HW1 5401   4.516   4.575  11.158 -0.0526 -0.1845 -0.3728
 1320SOL    HW2 5402   4.605   4.609  11.275  0.3703  2.2288 -1.3316
 1321SOL     OW 5403   3.882   1.042   2.235  0.2033  0.8839 -0.1935
 1321SOL    HW1 5404   3.829   1.120   2.256  1.2067  1.3105  0.9119
 1321SOL    HW2 5405   3.873   1.031   2.141 -0.9615  1.5934 -0.1896
 1322SOL     OW 5406   4.637   3.917   9.638 -0.4653 -0.1975 -0.5369
 1322SOL    HW1 5407   4.686   3.932   9.557 -1.5556  0.7621 -1.0399
 1322SOL    HW2 5408   4.571   3.987   9.640 -1.2137 -0.9054  0.5839
 1323SOL     OW 5409   3.632   1.409  10.474  0.0280 -0.1482  0.1874
 1323SOL    HW1 5410   3.651   1.396  10.381 -0.2212 -1.9533  0.3612
 1323SOL    HW2 5411   3.542   1.379  10.484  0.7702 -2.1327  1.3996
 1324SOL     OW 5412   6.300   3.870   5.340 -0.1181  0.1880 -0.0183
 1324SOL    HW1 5413   6.385   3.914   5.349 -0.4852  0.8344  0.3291
 1324SOL    HW2 5414   6.299   3.805   5.410 -0.8209  1.6946  1.4259
 1325SOL     OW 5415   3.853   1.786   9.855 -0.9046 -0.7301 -0.6458
 1325SOL    HW1 5416   3.936   1.740   9.844  0.3031  0.7331  1.7408
 1325SOL    HW2 5417   3.808   1.739   9.925 -1.0121 -0.0925 -0.2818
 1326SOL     OW 5418   0.506   3.674   0.119 -0.3516  0.5123 -0.5029
 1326SOL    HW1 5419   0.537   3.740   0.058 -0.6299  1.6063  0.5073
 1326SOL    HW2 5420   0.428   3.637   0.078 -1.2793  2.1341 -0.2647
 1327SOL     OW 5421   2.817   5.843  10.716  0.3874  0.1212 -0.0092
 1327SOL    HW1 5422   2.780   5.844  10.804 -0.8800 -0.5428 -0.5176
 1327SOL    HW2 5423   2.789   5.927  10.678 -3.2138 -1.5225 -1.3839
 1328SOL     OW 5424   0.113   4.653  10.053 -0.1091  0.5953  0.3307
 1328SOL    HW1 5425   0.123   4.748  10.046 -1.6980  0.8030  0.3812
 1328SOL    HW2 5426   0.185   4.625  10.110  0.3600  1.7712  0.3450
 1329SOL     OW 5427   0.466   4.080   2.125  0.4456 -0.3104  0.4122
 1329SOL    HW1 5428   0.513   4.051   2.047 -0.2532  0.9720 -0.5222
 1329SOL    HW2 5429   0.373   4.074   2.101  0.2435  1.0150  0.7744
 1330SOL     OW 5430   0.317   1.704   3.348 -0.5764  1.1623  0.1288
 1330SOL    HW1 5431   0.360   1.620   3.364 -1.3314  0.9938  1.3276
 1330SOL    HW2 5432   0.324   1.716   3.253 -0.9531 -0.5383 -0.1563
 1331SOL     OW 5433   6.535   7.338   6.165 -0.3880 -0.1154 -0.4414
 1331SOL    HW1 5434   6.555   7.299   6.080  0.7018  1.1540 -0.8041
 1331SOL    HW2 5435   6.606   7.400   6.180 -1.9215  1.5741  0.1830
 1332SOL     OW 5436   0.339   4.851   7.276 -0.4047 -0.2663 -0.1792
 1332SOL    HW1 5437   0.244   4.858   7.282 -0.3638 -0.6043  1.3676
 1332SOL    HW2 5438   0.356   4.760   7.252 -0.4742  0.0315 -1.4257
 1333SOL     OW 5439   4.766   0.059   2.868  0.0382  0.3288 -0.3396
 1333SOL    HW1 5440   4.800  -0.029   2.883  1.1030  0.7415 -0.2742
 1333SOL    HW2 5441   4.791   0.079   2.777 -1.2834  0.0989 -0.7774
 1334SOL     OW 5442   0.351   5.342   7.034  0.2281  0.1869  0.0758
 1334SOL    HW1 5443   0.331   5.420   6.982 -1.2278 -0.8540 -0.9864
 1334SOL    HW2 5444   0.447   5.343   7.042  0.4912  0.5793 -2.3498
 1335SOL     OW 5445   0.818   2.862   3.717 -0.0841 -0.3481  0.7454
 1335SOL    HW1 5446   0.813   2.767   3.702 -1.6984 -0.2836  0.6741
 1335SOL    HW2 5447   0.900   2.888   3.675 -0.5564 -1.4302 -0.9700
 1336SOL     OW 5448   6.858   7.460   6.489  0.1701  0.1023 -0.3839
 1336SOL    HW1 5449   6.893   7.547   6.512 -2.3735  0.4939  2.8167
 1336SOL    HW2 5450   6.770   7.478   6.455 -0.6377 -1.1727  0.9080
 1337SOL     OW 5451   2.179   5.699   9.259  0.5172  0.0818 -0.4781
 1337SOL    HW1 5452   2.129   5.746   9.192 -0.3464 -0.8950 -0.5456
 1337SOL    HW2 5453   2.122   5.697   9.335 -0.8251 -3.3681 -1.3629
 1338SOL     OW 5454   1.098   1.204  11.625  0.0342 -0.1136 -0.9328
 1338SOL    HW1 5455   1.112   1.112  11.649  1.1288  0.1336 -0.5666
 1338SOL    HW2 5456   1.012   1.225  11.660  0.4828 -0.5261  0.4575
 1339SOL     OW 5457   0.516   3.120   6.356  0.5637 -0.0577  0.0855
 1339SOL    HW1 5458   0.427   3.116   6.392 -0.0905  4.3978 -0.4493
 1339SOL    HW2 5459   0.569   3.153   6.429  0.5572  2.5929 -1.0151
 1340SOL     OW 5460   1.825   5.364   2.126 -0.2291  0.0188 -0.2276
 1340SOL    HW1 5461   1.755   5.424   2.098 -0.3656 -0.4806 -0.9855
 1340SOL    HW2 5462   1.901   5.421   2.138 -0.4026  0.3813 -0.7692
 1341SOL     OW 5463   3.991   0.192   5.591  0.4778  0.6283  0.6667
 1341SOL    HW1 5464   4.002   0.200   5.686  2.1043  0.0551  0.5437
 1341SOL    HW2 5465   3.996   0.098   5.574 -1.3046  0.5882  0.1535
 1342SOL     OW 5466   6.719   0.990   7.497  0.7967  0.3561  0.6719
 1342SOL    HW1 5467   6.753   1.079   7.492  0.7429  0.3281 -0.5415
 1342SOL    HW2 5468   6.792   0.935   7.468 -0.4123  0.3641 -2.9865
 1343SOL     OW 5469   7.466   6.093  11.393  0.1008  0.2919 -0.1265
 1343SOL    HW1 5470   7.377   6.070  11.368  0.3553 -0.5806 -0.2527
 1343SOL    HW2 5471   7.456   6.171  11.448 -0.6641  0.7290 -0.8598
 1344SOL     OW 5472   3.633   2.418   1.495 -0.3282 -0.0075  0.0168
 1344SOL    HW1 5473   3.567   2.357   1.528  0.2366 -0.6001  0.0695
 1344SOL    HW2 5474   3.665   2.377   1.415 -0.4921  0.6039 -0.3696
 1345SOL     OW 5475   3.282   2.582   8.268 -0.0462  0.1250  0.1864
 1345SOL    HW1 5476   3.343   2.550   8.333  0.2600  0.9553  0.3123
 1345SOL    HW2 5477   3.336   2.629   8.204 -0.3951 -0.2769 -0.4232
 1346SOL     OW 5478   2.783   2.265   9.552  0.2664  0.2193  0.1632
 1346SOL    HW1 5479   2.696   2.245   9.586  0.2180  1.6017  0.8810
 1346SOL    HW2 5480   2.843   2.231   9.618  0.2293  0.6746  0.4342
 1347SOL     OW 5481   6.039   2.387   2.158 -0.9654 -0.0087 -0.1209
 1347SOL    HW1 5482   6.029   2.471   2.202 -0.9801  1.6165 -2.9564
 1347SOL    HW2 5483   6.124   2.393   2.115 -0.5198 -1.8976  0.4016
 1348SOL     OW 5484   4.288   0.594   8.313  0.0845 -0.2244  0.7038
 1348SOL    HW1 5485   4.372   0.573   8.354 -0.0836 -0.1500  1.0817
 1348SOL    HW2 5486   4.226   0.531   8.350  0.5416 -2.3366 -1.7814
 1349SOL     OW 5487   2.734   3.490   1.912  0.9811 -0.3337  0.3192
 1349SOL    HW1 5488   2.673   3.427   1.872 -0.5131 -0.2264  2.2815
 1349SOL    HW2 5489   2.756   3.550   1.841 -2.7872  0.7739 -0.1570
 1350SOL     OW 5490   6.860   1.100   9.155  0.0468 -0.8195  0.0406
 1350SOL    HW1 5491   6.776   1.056   9.144 -1.4239  1.7893  0.2019
 1350SOL    HW2 5492   6.918   1.031   9.187 -2.7363 -2.1151  2.8231
 1351SOL     OW 5493   4.862   3.960   8.912  0.6201 -0.1951  0.2153
 1351SOL    HW1 5494   4.794   4.022   8.885  0.9743  1.1748  2.2417
 1351SOL    HW2 5495   4.840   3.879   8.867 -1.1215  0.7925 -0.8293
 1352SOL     OW 5496   2.095   1.674   6.869 -0.0004  0.3073 -0.0979
 1352SOL    HW1 5497   2.152   1.627   6.807 -0.8191  0.1187 -0.7369
 1352SOL    HW2 5498   2.061   1.748   6.818 -0.6398  0.1826  0.1397
 1353SOL     OW 5499   2.330   7.890   8.098  0.0725 -0.2360  0.4289
 1353SOL    HW1 5500   2.375   7.948   8.038  0.5281 -0.5665  0.4469
 1353SOL    HW2 5501   2.381   7.894   8.179 -1.3451  1.3326  1.2996
 1354SOL     OW 5502   1.918   2.274   4.904 -0.4573 -0.3414  0.3391
 1354SOL    HW1 5503   2.012   2.275   4.888 -0.5672 -0.1194 -0.3278
 1354SOL    HW2 5504   1.895   2.182   4.908 -0.0747 -0.3988  1.3563
 1355SOL     OW 5505   3.218   1.643   0.293 -0.6461  0.2065  0.0932
 1355SOL    HW1 5506   3.214   1.735   0.267  1.0727  0.3542  0.2420
 1355SOL    HW2 5507   3.193   1.594   0.214 -1.3345  0.7770 -0.0541
 1356SOL     OW 5508   4.507   5.533   0.643  1.3197  0.3340 -0.1112
 1356SOL    HW1 5509   4.509   5.530   0.547  0.6177  1.7040 -0.1951
 1356SOL    HW2 5510   4.449   5.460   0.668  1.0553  0.3207 -0.7532
 1357SOL     OW 5511   0.021   7.873   4.335  0.2013 -0.3057  0.1855
 1357SOL    HW1 5512  -0.001   7.863   4.428  0.3872 -1.1779  0.1422
 1357SOL    HW2 5513   0.026   7.968   4.322  0.9905 -0.1815  1.2648
 1358SOL     OW 5514   5.996   5.162  10.168  0.0701 -0.4430 -0.5110
 1358SOL    HW1 5515   5.959   5.075  10.184  1.1291 -0.9352 -0.6970
 1358SOL    HW2 5516   5.995   5.204  10.253 -0.3491 -0.6670 -0.3996
 1359SOL     OW 5517   6.188   7.256   6.690  0.0273  0.1466  0.2869
 1359SOL    HW1 5518   6.158   7.166   6.681  0.9126 -0.1564  0.3174
 1359SOL    HW2 5519   6.283   7.249   6.700  0.0818  1.0676  0.4931
 1360SOL     OW 5520   4.210   5.217  10.265  0.6775  0.0097 -0.5495
 1360SOL    HW1 5521   4.252   5.156  10.325 -0.6538 -0.7313 -0.3380
 1360SOL    HW2 5522   4.233   5.304  10.298 -1.3328 -0.3281  2.0706
 1361SOL     OW 5523   7.735   6.136  11.582 -0.2132 -0.3783  1.0646
 1361SOL    HW1 5524   7.707   6.122  11.673 -1.1971  1.0065  1.0092
 1361SOL    HW2 5525   7.667   6.095  11.529 -0.1573 -0.3319  0.9560
 1362SOL     OW 5526   0.792   0.226   8.695 -0.4140 -0.4855  0.1935
 1362SOL    HW1 5527   0.726   0.276   8.647 -0.9630 -1.3861  0.0004
 1362SOL    HW2 5528   0.875   0.269   8.672 -0.8530  0.1931 -0.1466
 1363SOL     OW 5529   6.468   3.275   1.668 -0.3279 -0.0284  0.3541
 1363SOL    HW1 5530   6.400   3.295   1.732  0.0105  0.1776  0.6551
 1363SOL    HW2 5531   6.548   3.269   1.720 -0.2061 -0.8235  0.0823
 1364SOL     OW 5532   2.476   5.638   3.894  0.5700 -0.1269  0.0703
 1364SOL    HW1 5533   2.517   5.724   3.888 -0.4047  0.4398  1.2196
 1364SOL    HW2 5534   2.518   5.597   3.970  1.3322 -0.8582 -0.7187
 1365SOL     OW 5535   6.697   1.765   8.760 -0.0845  0.2359  0.3924
 1365SOL    HW1 5536   6.684   1.736   8.670  0.7463 -1.1691  0.7021
 1365SOL    HW2 5537   6.608   1.770   8.797 -0.2992 -1.3497  0.1411
 1366SOL     OW 5538   0.586   4.523   1.108 -0.1116  0.1095 -0.4926
 1366SOL    HW1 5539   0.583   4.611   1.073  0.9814  0.5022  0.3539
 1366SOL    HW2 5540   0.676   4.494   1.093  0.0299 -0.1771  0.8284
 1367SOL     OW 5541   2.053   7.352   5.381  0.0550  0.6639  0.4719
 1367SOL    HW1 5542   1.976   7.296   5.379 -0.6280  1.6149 -1.0489
 1367SOL    HW2 5543   2.074   7.360   5.474 -0.7804 -0.7800  0.8212
 1368SOL     OW 5544   7.473   4.351   7.114 -0.4432 -0.4625  0.4371
 1368SOL    HW1 5545   7.387   4.336   7.153 -0.3908 -0.2600  0.6389
 1368SOL    HW2 5546   7.526   4.276   7.140 -1.0095 -1.4084 -1.0432
 1369SOL     OW 5547   2.649   5.245   9.561  0.1155 -0.4310 -0.0329
 1369SOL    HW1 5548   2.721   5.200   9.607 -0.0647 -1.4197 -0.6834
 1369SOL    HW2 5549   2.626   5.186   9.490 -1.7828 -0.4452  0.5437
 1370SOL     OW 5550   1.833   2.445   2.128  0.3466 -0.1334 -0.6775
 1370SOL    HW1 5551   1.917   2.485   2.149  0.3867 -0.8309  0.5583
 1370SOL    HW2 5552   1.772   2.519   2.122  0.5630  0.2175  0.9050
 1371SOL     OW 5553   1.569   3.941   5.338 -0.0566  0.0461  0.4683
 1371SOL    HW1 5554   1.607   3.994   5.268  0.4436 -0.4559  0.3566
 1371SOL    HW2 5555   1.514   4.002   5.387 -0.2765  0.4421 -0.2582
 1372SOL     OW 5556   7.297   5.798   1.828  0.0014 -0.5217 -0.1709
 1372SOL    HW1 5557   7.238   5.746   1.773  1.2206  0.1196 -2.2324
 1372SOL    HW2 5558   7.384   5.780   1.793  0.8463 -0.0028  1.5563
 1373SOL     OW 5559   7.831   4.243   5.030  0.2101  0.1422  0.1698
 1373SOL    HW1 5560   7.924   4.236   5.050  0.3421 -1.2971 -0.8287
 1373SOL    HW2 5561   7.826   4.307   4.959  0.7972 -1.8571 -1.7726
 1374SOL     OW 5562   6.526   3.863   6.549  0.1389  0.5066 -0.0232
 1374SOL    HW1 5563   6.566   3.872   6.636  1.6037  1.1468 -0.7235
 1374SOL    HW2 5564   6.599   3.878   6.488 -1.0305  0.8735 -1.3635
 1375SOL     OW 5565   5.929   0.515  11.394  0.2705  0.5313 -0.3646
 1375SOL    HW1 5566   5.859   0.506  11.330  0.3856  1.9106 -0.6972
 1375SOL    HW2 5567   5.891   0.566  11.465 -0.2008 -1.8789  1.2474
 1376SOL     OW 5568   5.030   6.312   2.113 -0.0382  0.0731 -0.6222
 1376SOL    HW1 5569   5.075   6.395   2.125 -1.1432  0.6373 -0.2089
 1376SOL    HW2 5570   4.993   6.317   2.025 -0.6984  0.3220 -0.3347
 1377SOL     OW 5571   3.984   6.387  12.358  0.5063  0.7938  0.0360
 1377SOL    HW1 5572   3.895   6.401  12.327  1.2566  2.2802 -1.6359
 1377SOL    HW2 5573   4.005   6.466  12.409  0.9093  0.5119  0.3176
 1378SOL     OW 5574   5.461   3.790   6.405 -0.1395  0.0396 -0.1188
 1378SOL    HW1 5575   5.448   3.852   6.477  0.2109 -0.9955  0.8616
 1378SOL    HW2 5576   5.377   3.745   6.396 -0.2235  0.2563 -0.4624
 1379SOL     OW 5577   7.227   1.164  10.153 -0.0117  0.4291 -0.3043
 1379SOL    HW1 5578   7.295   1.227  10.127  0.5839  0.3635  1.0311
 1379SOL    HW2 5579   7.209   1.184  10.245  0.3014 -1.4466  0.2036
 1380SOL     OW 5580   0.181   7.214  10.857 -0.1648  0.9715 -0.4616
 1380SOL    HW1 5581   0.217   7.133  10.822  1.8379  1.3777  0.4947
 1380SOL    HW2 5582   0.246   7.281  10.834 -1.1979  2.0959 -0.2231
 1381SOL     OW 5583   5.281   2.989   9.126 -0.1384 -0.1951  0.0466
 1381SOL    HW1 5584   5.304   2.915   9.183 -1.6452  0.2701  1.3164
 1381SOL    HW2 5585   5.348   3.055   9.144 -0.6834  0.0006  1.3983
 1382SOL     OW 5586   2.324   5.087   6.364 -0.2507  0.3188  1.2431
 1382SOL    HW1 5587   2.302   5.177   6.341 -1.7339 -0.6350 -1.5358
 1382SOL    HW2 5588   2.253   5.058   6.422 -2.8188 -0.5046 -1.9729
 1383SOL     OW 5589   1.543   4.642  10.090 -0.2865  0.5126 -0.0704
 1383SOL    HW1 5590   1.572   4.552  10.073 -0.5819  0.5135 -0.6097
 1383SOL    HW2 5591   1.474   4.633  10.156  0.7277  0.4875  1.0239
 1384SOL     OW 5592   5.405   3.645  12.315 -0.0119  0.6438  0.0224
 1384SOL    HW1 5593   5.393   3.647  12.410 -0.1545  2.5729  0.0054
 1384SOL    HW2 5594   5.465   3.572  12.300 -2.1947 -1.5469  1.2855
 1385SOL     OW 5595   2.512   6.935   8.810  0.4231 -0.2451  0.1822
 1385SOL    HW1 5596   2.569   6.935   8.887  0.4589  0.2274  0.1587
 1385SOL    HW2 5597   2.465   7.019   8.814 -1.4012 -1.2424  1.0269
 1386SOL     OW 5598   1.502   2.050   4.144  0.0319 -0.3696 -0.6066
 1386SOL    HW1 5599   1.437   2.104   4.190  0.3397 -0.9038  0.4778
 1386SOL    HW2 5600   1.480   1.960   4.169  0.5595 -0.6327 -1.0703
 1387SOL     OW 5601   2.499   3.615   0.695 -0.4598 -0.5404 -0.0195
 1387SOL    HW1 5602   2.472   3.648   0.781  2.1243 -1.4281  1.2225
 1387SOL    HW2 5603   2.548   3.688   0.655 -3.4471  0.6849 -1.8171
 1388SOL     OW 5604   7.501   7.226   5.399  0.1434  0.5516 -0.6468
 1388SOL    HW1 5605   7.555   7.296   5.437 -1.9351  1.0025  1.7991
 1388SOL    HW2 5606   7.450   7.193   5.474 -0.9761 -1.6727 -2.2881
 1389SOL     OW 5607   2.202   5.829   6.659 -0.7645 -0.2546  0.1025
 1389SOL    HW1 5608   2.147   5.768   6.610 -1.7199  2.0147 -1.8344
 1389SOL    HW2 5609   2.194   5.912   6.612  2.2652  0.8454  1.2780
 1390SOL     OW 5610   4.331   5.505  11.865  0.8623 -0.2942 -0.7400
 1390SOL    HW1 5611   4.257   5.503  11.803  0.6096 -0.7537 -0.4332
 1390SOL    HW2 5612   4.319   5.586  11.914  0.0832 -0.7630 -0.1297
 1391SOL     OW 5613   7.268   0.927   0.525 -0.1436  0.8648  1.0162
 1391SOL    HW1 5614   7.318   0.989   0.472 -1.3429 -0.3829 -1.8170
 1391SOL    HW2 5615   7.299   0.841   0.497 -2.5244  0.0927  0.4773
 1392SOL     OW 5616   4.428   7.132   3.398 -0.6782  0.2136  0.0242
 1392SOL    HW1 5617   4.510   7.109   3.441 -0.5144 -1.6893 -1.1920
 1392SOL    HW2 5618   4.427   7.228   3.399  1.4333  0.2900  0.2853
 1393SOL     OW 5619   7.025   4.055   8.889  0.2457  0.1808  0.4365
 1393SOL    HW1 5620   7.097   4.118   8.889 -0.0804  0.5655  0.4650
 1393SOL    HW2 5621   6.955   4.100   8.936 -0.3177  0.1773 -0.3755
 1394SOL     OW 5622   0.817   7.912   8.566 -0.5030 -0.2798  0.2639
 1394SOL    HW1 5623   0.755   7.880   8.500 -0.0619 -2.8484  1.0050
 1394SOL    HW2 5624   0.773   7.987   8.606 -1.4540  0.3433 -1.8099
 1395SOL     OW 5625   7.720   4.983   2.567  0.3453 -0.6005 -0.5362
 1395SOL    HW1 5626   7.769   5.041   2.626  0.1679 -0.3958 -0.5886
 1395SOL    HW2 5627   7.667   5.043   2.513  0.9109 -0.7476 -1.2721
 1396SOL     OW 5628   0.138   4.258  10.250  0.4310 -0.3747 -0.0775
 1396SOL    HW1 5629   0.073   4.218  10.307  0.2821  0.5495  0.4260
 1396SOL    HW2 5630   0.126   4.215  10.165 -0.7853 -0.2656  0.0267
 1397SOL     OW 5631   0.476   4.943   2.163 -0.7558  0.2611  0.0421
 1397SOL    HW1 5632   0.522   4.884   2.103 -3.5937 -1.9819 -0.1518
 1397SOL    HW2 5633   0.526   4.938   2.244  2.4265  2.3662 -1.6038
 1398SOL     OW 5634   1.728   4.356   4.091  0.1578 -0.4683 -0.2144
 1398SOL    HW1 5635   1.650   4.348   4.146 -0.4467 -0.7525 -1.0830
 1398SOL    HW2 5636   1.744   4.267   4.058  2.3599 -0.9582  1.8998
 1399SOL     OW 5637   2.034   5.270  11.524 -0.3411 -0.3296 -0.0631
 1399SOL    HW1 5638   2.007   5.355  11.490 -1.3801 -0.0945  1.2287
 1399SOL    HW2 5639   2.069   5.223  11.449  1.6006  1.7342 -0.5250
 1400SOL     OW 5640   5.175   7.930  11.674 -0.2160 -0.4500  0.0429
 1400SOL    HW1 5641   5.111   8.001  11.680 -0.1852 -0.3937 -0.3197
 1400SOL    HW2 5642   5.147   7.868  11.742 -0.8270 -0.5593 -0.2940
 1401SOL     OW 5643   5.842   4.264  10.044  0.1647  0.3135 -0.1308
 1401SOL    HW1 5644   5.931   4.233  10.025 -0.9022 -2.2039 -1.3277
 1401SOL    HW2 5645   5.845   4.287  10.137  2.0780  0.3422 -0.1552
 1402SOL     OW 5646   6.183   5.952   2.191 -0.3670 -0.1992 -0.4151
 1402SOL    HW1 5647   6.117   5.890   2.161  0.5600 -1.7854  0.6382
 1402SOL    HW2 5648   6.265   5.903   2.186  0.7292  1.6275 -1.4458
 1403SOL     OW 5649   5.607   1.070   7.182 -0.6048  0.1896  0.6621
 1403SOL    HW1 5650   5.615   1.115   7.098 -0.5945 -0.7875  0.1181
 1403SOL    HW2 5651   5.684   1.098   7.232 -0.2772  0.2993  0.1042
 1404SOL     OW 5652   4.366   3.096   8.268  0.6523  0.4601  0.7390
 1404SOL    HW1 5653   4.272   3.110   8.280  0.1708 -1.1082 -0.7985
 1404SOL    HW2 5654   4.403   3.184   8.266 -0.6715  1.0870  2.0135
 1405SOL     OW 5655   3.400   1.155   0.619 -0.5690 -0.3300  0.3019
 1405SOL    HW1 5656   3.314   1.114   0.605 -0.4831 -0.8605  1.2585
 1405SOL    HW2 5657   3.458   1.083   0.641 -0.0465  0.1221  0.4236
 1406SOL     OW 5658   5.151   7.944   4.609  0.2021  0.4281  0.0461
 1406SOL    HW1 5659   5.107   8.016   4.562  0.5458  0.8430  0.3525
 1406SOL    HW2 5660   5.173   7.982   4.694  2.5120  0.7344 -0.6252
 1407SOL     OW 5661   6.902   1.919   5.182  0.0419 -0.1967 -0.5020
 1407SOL    HW1 5662   6.894   1.855   5.111 -1.9846 -0.4638 -0.1038
 1407SOL    HW2 5663   6.879   1.870   5.261 -1.5287  0.9814 -0.1898
 1408SOL     OW 5664   2.174   2.126   9.698  0.0630 -0.0758  0.0709
 1408SOL    HW1 5665   2.155   2.052   9.756 -0.9240  0.7176  0.7945
 1408SOL    HW2 5666   2.173   2.088   9.610 -1.2830 -0.7805  0.3693
 1409SOL     OW 5667   2.903   7.865   3.083  0.2120 -0.3662  0.0435
 1409SOL    HW1 5668   2.905   7.957   3.053  1.6507 -0.8200 -1.4262
 1409SOL    HW2 5669   2.826   7.828   3.041  1.3986 -0.6032 -2.0998
 1410SOL     OW 5670   1.476   4.841   9.909 -0.3442  0.1862 -0.2400
 1410SOL    HW1 5671   1.481   4.787   9.830  0.4637  0.2973 -0.2803
 1410SOL    HW2 5672   1.480   4.778   9.981  1.5808  0.1907 -0.2689
 1411SOL     OW 5673   2.987   6.482  12.208 -0.0085 -0.0823  0.1002
 1411SOL    HW1 5674   3.014   6.392  12.188 -1.7528 -0.6121 -0.0474
 1411SOL    HW2 5675   2.985   6.527  12.124  2.5495  0.6499  0.3494
 1412SOL     OW 5676   3.832   3.449   4.571  0.1663  0.2295  0.5626
 1412SOL    HW1 5677   3.913   3.422   4.614 -0.3321  0.9682  2.0566
 1412SOL    HW2 5678   3.807   3.375   4.516  0.2166 -1.2887  2.4782
 1413SOL     OW 5679   6.101   6.369   3.850  0.2103 -0.3180 -0.0906
 1413SOL    HW1 5680   6.191   6.342   3.868  0.5088  1.0683  0.5888
 1413SOL    HW2 5681   6.109   6.436   3.782 -0.4239 -1.0418 -0.9048
 1414SOL     OW 5682   6.095   3.134   9.546 -0.0448  0.2681  0.0401
 1414SOL    HW1 5683   6.187   3.138   9.520 -0.7410 -0.1270 -2.8428
 1414SOL    HW2 5684   6.050   3.102   9.467 -2.4714 -1.0212  1.8307
 1415SOL     OW 5685   4.144   0.226  12.096 -0.1056  0.1570 -0.5436
 1415SOL    HW1 5686   4.181   0.163  12.158 -1.2076  0.2172  0.2047
 1415SOL    HW2 5687   4.068   0.180  12.059 -0.3666  0.7014 -0.6910
 1416SOL     OW 5688   7.203   4.500  10.069  0.0537 -0.2115  0.4293
 1416SOL    HW1 5689   7.182   4.546   9.988 -0.6599 -0.6971  0.3283
 1416SOL    HW2 5690   7.244   4.418  10.040 -0.2356 -0.4020  0.5588
 1417SOL     OW 5691   0.818   4.982   0.552  0.1794 -0.3802 -0.1168
 1417SOL    HW1 5692   0.831   4.917   0.483 -1.2945 -2.7427  1.6690
 1417SOL    HW2 5693   0.906   5.000   0.585  0.6740 -1.0216 -1.0367
 1418SOL     OW 5694   1.753   0.586   0.906  0.5770  0.0232 -0.0780
 1418SOL    HW1 5695   1.730   0.497   0.932 -2.0303  0.2024 -1.5098
 1418SOL    HW2 5696   1.839   0.577   0.864 -0.2802 -2.1113 -1.5493
 1419SOL     OW 5697   7.597   1.019   7.999  0.0017  0.1373  0.0248
 1419SOL    HW1 5698   7.594   1.054   8.088 -1.4072  1.3287 -0.4358
 1419SOL    HW2 5699   7.670   0.957   7.999  0.0609  0.1474  1.9833
 1420SOL     OW 5700   5.093   5.051   4.156  0.1741 -0.0308 -0.4313
 1420SOL    HW1 5701   4.998   5.061   4.149  0.3951  2.3471 -0.7779
 1420SOL    HW2 5702   5.108   4.958   4.140 -1.8865 -0.0413 -3.1380
 1421SOL     OW 5703   1.047   5.166   4.169  0.1223 -0.1358 -0.0417
 1421SOL    HW1 5704   1.021   5.081   4.205 -0.5022 -0.3227 -0.8931
 1421SOL    HW2 5705   0.980   5.185   4.103  0.6155  0.7158 -0.3045
 1422SOL     OW 5706   2.173   5.052  11.428  0.6526 -0.3715  0.3597
 1422SOL    HW1 5707   2.222   5.042  11.346  0.7762 -2.4177  0.6438
 1422SOL    HW2 5708   2.081   5.055  11.400  0.6345 -1.9204  0.1656
 1423SOL     OW 5709   6.909   2.001   2.317  0.0445  0.5221  0.1949
 1423SOL    HW1 5710   6.941   2.075   2.265 -0.0882 -0.3174 -1.1443
 1423SOL    HW2 5711   6.983   1.939   2.317 -0.4886 -0.1370 -0.3307
 1424SOL     OW 5712   5.217   0.174   8.893  0.1813  0.1051 -0.2450
 1424SOL    HW1 5713   5.135   0.176   8.944 -0.0471  1.6312 -0.6262
 1424SOL    HW2 5714   5.190   0.143   8.806  0.3432 -1.1914  0.1496
 1425SOL     OW 5715   0.849   2.778   0.571 -0.4255  0.1412  0.6018
 1425SOL    HW1 5716   0.791   2.741   0.504  1.2706  0.8167 -1.3733
 1425SOL    HW2 5717   0.817   2.742   0.653 -1.7052 -1.9557 -0.7114
 1426SOL     OW 5718   6.954   1.174   6.953  0.0092 -0.2449  0.1479
 1426SOL    HW1 5719   7.001   1.171   7.037  0.0467  0.7830  0.1814
 1426SOL    HW2 5720   6.923   1.264   6.947 -1.2570 -0.6922 -0.2737
 1427SOL     OW 5721   0.301   4.805   0.282  0.5247 -0.1792  0.0977
 1427SOL    HW1 5722   0.295   4.763   0.368  1.8817 -0.2255  0.1844
 1427SOL    HW2 5723   0.390   4.840   0.278 -0.4512  2.4990 -0.0754
 1428SOL     OW 5724   3.699   4.938   1.979 -0.7020  0.0780  0.1208
 1428SOL    HW1 5725   3.712   4.845   1.997  1.2758  0.2419 -0.2704
 1428SOL    HW2 5726   3.638   4.967   2.046 -0.0120 -1.1307  1.3144
 1429SOL     OW 5727   7.582   0.436   5.060 -0.2952 -1.1077 -0.4972
 1429SOL    HW1 5728   7.645   0.412   4.992  0.9784  2.0005 -0.6008
 1429SOL    HW2 5729   7.563   0.528   5.043 -0.5186 -0.4102  2.9105
 1430SOL     OW 5730   6.900   6.059   8.299 -0.0612  0.4556  0.2039
 1430SOL    HW1 5731   6.868   5.969   8.300  1.8305 -0.2934 -1.0052
 1430SOL    HW2 5732   6.940   6.069   8.213  2.1130  1.5623  1.2534
 1431SOL     OW 5733   5.111   3.549   3.116 -0.5884 -0.1015  0.0678
 1431SOL    HW1 5734   5.102   3.546   3.211 -1.3482  0.8481  0.0447
 1431SOL    HW2 5735   5.038   3.498   3.082 -0.0084 -0.8980 -0.0148
 1432SOL     OW 5736   3.689   7.819   6.029 -0.0831  0.0514 -0.1355
 1432SOL    HW1 5737   3.665   7.741   6.079  2.6711 -0.7303  0.1256
 1432SOL    HW2 5738   3.606   7.864   6.014 -1.5975 -2.1985  0.8992
 1433SOL     OW 5739   1.449   1.548   0.617 -0.1154 -0.6486 -0.5011
 1433SOL    HW1 5740   1.472   1.558   0.525 -0.3118  0.0232 -0.4855
 1433SOL    HW2 5741   1.398   1.627   0.637  1.2600  0.0027  0.5907
 1434SOL     OW 5742   5.555   6.691   3.854 -0.2343 -0.7382 -0.0650
 1434SOL    HW1 5743   5.503   6.703   3.933 -0.6120 -1.5123 -0.1796
 1434SOL    HW2 5744   5.510   6.621   3.806  0.3567 -0.7388 -0.6423
 1435SOL     OW 5745   1.916   4.504   7.987 -0.0800 -0.7547  0.1239
 1435SOL    HW1 5746   1.950   4.451   8.059 -0.1982 -1.5784 -0.4056
 1435SOL    HW2 5747   1.986   4.503   7.921 -1.3244 -3.1424 -1.3205
 1436SOL     OW 5748   5.469   4.609  11.503  0.1713  0.0599 -0.8780
 1436SOL    HW1 5749   5.508   4.540  11.449 -0.2711  1.7519 -3.5149
 1436SOL    HW2 5750   5.527   4.684  11.492  1.6712 -0.2186  3.4231
 1437SOL     OW 5751   4.964   0.725   5.523  0.2041  0.1832 -0.4462
 1437SOL    HW1 5752   5.002   0.726   5.435 -1.3895  1.1321 -1.1611
 1437SOL    HW2 5753   4.882   0.773   5.514 -0.6807 -0.9315  1.2613
 1438SOL     OW 5754   2.237   5.456   0.498 -0.1198 -0.0643  0.3466
 1438SOL    HW1 5755   2.291   5.377   0.495 -1.4701 -1.0608  1.3066
 1438SOL    HW2 5756   2.179   5.443   0.573 -1.1268  1.3512 -0.1433
 1439SOL     OW 5757   7.406   2.944   2.544 -0.1368  0.1949  0.0089
 1439SOL    HW1 5758   7.411   3.033   2.579  0.9949 -0.3020  1.1893
 1439SOL    HW2 5759   7.328   2.906   2.586  0.3742  0.0853  0.8965
 1440SOL     OW 5760   2.387   3.182   5.835 -0.5460 -0.1702  0.6203
 1440SOL    HW1 5761   2.386   3.235   5.915 -1.6752  1.1159 -0.2034
 1440SOL    HW2 5762   2.318   3.220   5.780  1.2481  0.0336 -1.6322
 1441SOL     OW 5763   3.639   6.722   9.655 -0.4768 -0.3939  0.3332
 1441SOL    HW1 5764   3.590   6.670   9.590 -0.3739 -2.3777  1.7607
 1441SOL    HW2 5765   3.730   6.696   9.642 -0.1510  0.9814 -0.2590
 1442SOL     OW 5766   1.562   2.801   7.468  0.2323  0.2842 -0.1744
 1442SOL    HW1 5767   1.537   2.738   7.536  1.1164  1.3591  1.2068
 1442SOL    HW2 5768   1.503   2.876   7.482  1.4120  1.1362  0.4483
 1443SOL     OW 5769   5.721   0.490   2.482 -0.3948 -0.3093  0.3763
 1443SOL    HW1 5770   5.653   0.478   2.549 -0.8421  1.4474  0.2950
 1443SOL    HW2 5771   5.694   0.434   2.410 -0.8378 -0.9211  1.0023
 1444SOL     OW 5772   2.733   1.530   6.783 -0.1483  0.6108 -0.2167
 1444SOL    HW1 5773   2.671   1.475   6.830  2.2190 -1.7638  0.3130
 1444SOL    HW2 5774   2.748   1.604   6.841  2.1548 -1.8938  2.6824
 1445SOL     OW 5775   3.893   3.803  11.745  0.1758  0.4805 -0.1582
 1445SOL    HW1 5776   3.892   3.712  11.775 -0.7810  0.4073 -0.3952
 1445SOL    HW2 5777   3.912   3.853  11.824 -0.2622  0.1413  0.1693
 1446SOL     OW 5778   6.662   4.824   3.088  0.3419  0.5235 -0.3940
 1446SOL    HW1 5779   6.717   4.863   3.155  0.5306  0.8057 -0.7087
 1446SOL    HW2 5780   6.722   4.806   3.015  0.0760  0.5550 -0.6236
 1447SOL     OW 5781   2.247   7.672   7.638 -0.1592  0.7581  0.0953
 1447SOL    HW1 5782   2.288   7.755   7.616  1.5707  0.3802  1.5471
 1447SOL    HW2 5783   2.238   7.674   7.734 -0.6290 -0.4706  0.1059
 1448SOL     OW 5784   2.674   4.012   8.971  0.0025 -0.5089 -0.2284
 1448SOL    HW1 5785   2.683   3.960   9.051  1.2606 -0.7679 -0.5139
 1448SOL    HW2 5786   2.631   3.953   8.909 -1.8763  0.0165  0.5281
 1449SOL     OW 5787   1.214   1.184   8.626 -0.0636 -0.1862 -0.1279
 1449SOL    HW1 5788   1.183   1.275   8.630  2.0837  0.6981 -1.8104
 1449SOL    HW2 5789   1.134   1.133   8.611 -1.2192  1.5174 -0.1272
 1450SOL     OW 5790   2.906   5.811   5.398 -0.4746 -0.1782 -0.8505
 1450SOL    HW1 5791   2.943   5.814   5.309  0.2831 -0.2626 -0.5510
 1450SOL    HW2 5792   2.899   5.903   5.424  3.2864 -0.0985  0.5510
 1451SOL     OW 5793   6.078   5.300   1.063  0.2249 -0.5849  0.4004
 1451SOL    HW1 5794   6.016   5.246   1.113 -1.0544  0.7421  0.3432
 1451SOL    HW2 5795   6.069   5.269   0.973  0.2949 -0.9856  0.5290
 1452SOL     OW 5796   2.639   0.528  12.332  0.0074 -0.7234 -0.0242
 1452SOL    HW1 5797   2.651   0.452  12.276 -0.2487  0.3427 -1.6030
 1452SOL    HW2 5798   2.549   0.555  12.318  0.5332  0.7829 -0.7249
 1453SOL     OW 5799   5.581   1.444   0.350  0.2049 -0.2770 -0.2478
 1453SOL    HW1 5800   5.608   1.353   0.367  0.5606  0.1405  1.6196
 1453SOL    HW2 5801   5.490   1.448   0.380  0.6885  0.3579  1.2041
 1454SOL     OW 5802   0.334   3.435  11.592  0.1083 -0.4697 -0.2553
 1454SOL    HW1 5803   0.414   3.381  11.594  0.4789  0.0839  1.2318
 1454SOL    HW2 5804   0.270   3.384  11.641  0.5423  0.5087  1.4066
 1455SOL     OW 5805   0.664   4.846   8.507 -0.1216  0.0822  0.4945
 1455SOL    HW1 5806   0.612   4.769   8.527 -0.7956  0.6332  0.9347
 1455SOL    HW2 5807   0.713   4.864   8.588 -0.7555  0.7112  0.7470
 1456SOL     OW 5808   7.856   1.300   2.750 -0.0519 -0.2901  0.0183
 1456SOL    HW1 5809   7.900   1.256   2.823 -0.2127 -0.8528 -0.2202
 1456SOL    HW2 5810   7.809   1.230   2.705  1.2955 -0.2344 -1.5634
 1457SOL     OW 5811   4.609   7.554   1.844 -0.0017  0.1518  0.5482
 1457SOL    HW1 5812   4.583   7.497   1.772 -1.3530  0.2219  0.9512
 1457SOL    HW2 5813   4.626   7.495   1.917  1.9802  0.0296  0.0418
 1458SOL     OW 5814   7.923   2.973   4.422  0.1491  0.3521  0.5274
 1458SOL    HW1 5815   7.840   2.927   4.434  0.3098 -0.1623 -0.2596
 1458SOL    HW2 5816   7.901   3.052   4.374  0.1957 -0.1241 -0.2955
 1459SOL     OW 5817   4.181   0.057   1.121  0.0138  0.3139 -0.3295
 1459SOL    HW1 5818   4.171  -0.012   1.186 -1.6777  0.6680 -0.1739
 1459SOL    HW2 5819   4.136   0.132   1.158  0.6111  1.0865 -1.1172
 1460SOL     OW 5820   1.364   6.574   6.426 -0.1864  0.0823  0.1403
 1460SOL    HW1 5821   1.440   6.588   6.483 -0.2297 -1.0972  0.5021
 1460SOL    HW2 5822   1.401   6.534   6.347 -0.4354 -0.4984  0.3205
 1461SOL     OW 5823   3.208   6.083   2.731  0.3561 -0.1887  0.1503
 1461SOL    HW1 5824   3.123   6.057   2.767  0.7377 -1.7447  0.0003
 1461SOL    HW2 5825   3.203   6.058   2.639  0.3505  1.3594 -0.3073
 1462SOL     OW 5826   6.125   2.002   1.335  0.1507 -0.2354  0.1651
 1462SOL    HW1 5827   6.067   1.954   1.393 -0.4237  0.2093 -0.0323
 1462SOL    HW2 5828   6.208   1.954   1.339 -0.9907 -2.5519 -1.7394
 1463SOL     OW 5829   1.000   4.837   9.097 -0.1215 -0.4874 -0.7147
 1463SOL    HW1 5830   1.047   4.802   9.173  1.5015  0.5716 -1.1861
 1463SOL    HW2 5831   1.069   4.857   9.034 -1.3732 -0.4736 -2.1153
 1464SOL     OW 5832   4.429   7.249  10.728  0.2113 -0.0602 -0.0502
 1464SOL    HW1 5833   4.391   7.210  10.649 -0.7751  0.5522  0.1096
 1464SOL    HW2 5834   4.356   7.292  10.771  0.5958 -0.9394  1.5554
 1465SOL     OW 5835   0.843   1.883   8.325  0.4965 -0.7524  0.0710
 1465SOL    HW1 5836   0.808   1.911   8.240  0.5394  0.1657  0.3369
 1465SOL    HW2 5837   0.825   1.789   8.329  1.2424 -0.9753 -1.3032
 1466SOL     OW 5838   7.572   2.902   0.213  0.0580  0.4763  0.2331
 1466SOL    HW1 5839   7.630   2.828   0.231 -1.0154 -0.5842 -0.5435
 1466SOL    HW2 5840   7.491   2.862   0.180 -0.2201  2.0336 -1.0949
 1467SOL     OW 5841   1.624   6.094   3.961 -0.2757  0.1431  0.1976
 1467SOL    HW1 5842   1.700   6.110   4.016  0.7974 -0.6312 -1.0054
 1467SOL    HW2 5843   1.556   6.064   4.022  0.7532 -0.3270  1.1438
 1468SOL     OW 5844   6.637   3.146  12.245  0.5374 -0.0500 -0.4968
 1468SOL    HW1 5845   6.663   3.054  12.235 -1.2175 -0.5573 -0.8212
 1468SOL    HW2 5846   6.548   3.142  12.280  0.3640  1.5331 -0.6811
 1469SOL     OW 5847   1.748   6.169   7.468  0.3977 -0.1344  0.1998
 1469SOL    HW1 5848   1.655   6.185   7.454  0.2870 -0.5486  0.4847
 1469SOL    HW2 5849   1.789   6.199   7.386  0.1841  1.4948  0.6520
 1470SOL     OW 5850   4.711   6.868   4.437 -0.2376 -0.2130  0.2328
 1470SOL    HW1 5851   4.710   6.948   4.384 -0.8269 -0.6302 -0.4036
 1470SOL    HW2 5852   4.791   6.823   4.412 -0.4849 -0.3802 -0.2763
 1471SOL     OW 5853   5.662   3.399   4.800 -0.0042 -0.3223  0.3960
 1471SOL    HW1 5854   5.737   3.451   4.773  1.1340 -2.1052 -0.0208
 1471SOL    HW2 5855   5.586   3.447   4.766  0.9441  1.2468  0.3820
 1472SOL     OW 5856   1.793   5.728  10.812 -0.1165  0.0253 -0.6706
 1472SOL    HW1 5857   1.750   5.650  10.778  1.6653 -0.8715 -1.0006
 1472SOL    HW2 5858   1.836   5.699  10.893  0.3471  0.7122 -0.6543
 1473SOL     OW 5859   4.625   7.457   5.960 -0.3188 -0.0525  0.0980
 1473SOL    HW1 5860   4.564   7.386   5.976  1.2902 -1.6365 -0.4930
 1473SOL    HW2 5861   4.622   7.471   5.865 -0.1477  0.1912  0.1269
 1474SOL     OW 5862   6.247   5.169   6.101 -0.0000  0.3549 -0.3567
 1474SOL    HW1 5863   6.328   5.219   6.086  1.3319 -0.8904  2.0919
 1474SOL    HW2 5864   6.272   5.078   6.090 -0.9334 -0.0826  0.8424
 1475SOL     OW 5865   1.596   5.377   3.128  0.4041 -0.5289 -0.2715
 1475SOL    HW1 5866   1.681   5.382   3.171  0.1656 -1.3809  0.3098
 1475SOL    HW2 5867   1.586   5.463   3.086  1.0332 -0.0048  0.6157
 1476SOL     OW 5868   4.325   3.064   3.823 -0.3334  0.3319 -0.4139
 1476SOL    HW1 5869   4.309   2.991   3.883  0.3273  0.7989  0.3554
 1476SOL    HW2 5870   4.373   3.024   3.750 -0.3805 -0.0851 -0.2229
 1477SOL     OW 5871   0.234   5.569   5.791  0.1565 -0.1717 -0.3236
 1477SOL    HW1 5872   0.257   5.640   5.732 -0.3693  0.5881  0.3745
 1477SOL    HW2 5873   0.168   5.518   5.743 -1.8176  1.6090  0.3362
 1478SOL     OW 5874   5.903   3.367   6.531 -0.0315 -0.0260 -0.3021
 1478SOL    HW1 5875   5.977   3.318   6.567  0.4995  0.5411 -0.5987
 1478SOL    HW2 5876   5.847   3.385   6.606 -0.2573 -1.1023 -0.1906
 1479SOL     OW 5877   3.036   4.146   8.635  0.3314  0.3678 -0.1172
 1479SOL    HW1 5878   3.124   4.110   8.645 -0.3539 -1.3830 -0.0719
 1479SOL    HW2 5879   3.003   4.154   8.725  0.4125  0.9708 -0.1373
 1480SOL     OW 5880   1.068   1.601   0.422 -0.0894  0.5625 -0.1000
 1480SOL    HW1 5881   1.100   1.614   0.333  0.6714  2.7382  0.4259
 1480SOL    HW2 5882   1.136   1.639   0.477  0.2203 -2.1302  1.5627
 1481SOL     OW 5883   7.156   2.106  11.992 -0.1719 -0.1828  0.0164
 1481SOL    HW1 5884   7.174   2.199  11.974 -0.3061 -0.0222  0.6776
 1481SOL    HW2 5885   7.167   2.063  11.908 -1.7665  0.6884 -0.6926
 1482SOL     OW 5886   2.851   1.457   4.344 -0.2578 -0.2912 -0.2927
 1482SOL    HW1 5887   2.867   1.467   4.250 -1.6046 -0.9387 -0.6194
 1482SOL    HW2 5888   2.798   1.533   4.367 -0.2563 -0.3354 -0.1462
 1483SOL     OW 5889   1.646   6.795   9.954 -0.4061  0.3538  0.2780
 1483SOL    HW1 5890   1.649   6.738  10.031 -0.9141 -0.7402 -0.4929
 1483SOL    HW2 5891   1.658   6.736   9.879  2.0754  1.6060 -0.4508
 1484SOL     OW 5892   7.689   6.416   8.163  0.2908  0.4192  0.2619
 1484SOL    HW1 5893   7.717   6.326   8.173 -1.0213 -0.1395 -0.7623
 1484SOL    HW2 5894   7.759   6.468   8.202  0.2827 -1.0897  2.4424
 1485SOL     OW 5895   6.866   0.188   2.252 -0.6165 -0.2872  0.2661
 1485SOL    HW1 5896   6.955   0.175   2.284 -0.3297  0.0610 -0.3629
 1485SOL    HW2 5897   6.842   0.105   2.213  0.3351  0.2829 -1.6701
 1486SOL     OW 5898   1.874   2.184  11.717 -0.0080  0.3257  0.6586
 1486SOL    HW1 5899   1.910   2.101  11.749  0.5358  0.3674  0.1731
 1486SOL    HW2 5900   1.861   2.237  11.795  2.4572  0.9035  0.7700
 1487SOL     OW 5901   6.766   1.851   0.959 -0.1931  0.1029  0.3391
 1487SOL    HW1 5902   6.709   1.882   0.889  1.3235  0.2403 -0.8974
 1487SOL    HW2 5903   6.707   1.826   1.030 -1.8416 -0.8444 -1.3020
 1488SOL     OW 5904   7.519   7.443   5.178  0.2726  0.0035 -0.4013
 1488SOL    HW1 5905   7.551   7.533   5.180  0.1486  0.0508 -0.4864
 1488SOL    HW2 5906   7.571   7.401   5.109  2.1866 -0.7158  1.3919
 1489SOL     OW 5907   2.124   1.812  11.167  0.3249 -0.1794 -0.3746
 1489SOL    HW1 5908   2.077   1.769  11.239  1.6191  1.0269  1.2575
 1489SOL    HW2 5909   2.157   1.740  11.114 -1.3927 -1.0916 -0.2968
 1490SOL     OW 5910   2.665   2.253   6.436  0.2707 -0.2919  0.6340
 1490SOL    HW1 5911   2.603   2.290   6.374 -0.3168  1.9520  2.4092
 1490SOL    HW2 5912   2.613   2.192   6.488  0.0516 -0.0260  0.7321
 1491SOL     OW 5913   0.820   6.349   0.522  0.3962 -0.1369 -0.0007
 1491SOL    HW1 5914   0.912   6.324   0.516  0.2324 -1.3706  1.7376
 1491SOL    HW2 5915   0.821   6.444   0.524  1.4412 -0.0360 -2.0723
 1492SOL     OW 5916   0.069   6.477   5.415  0.8315 -0.1985  0.0690
 1492SOL    HW1 5917   0.080   6.414   5.344 -0.9531  1.7840 -2.1396
 1492SOL    HW2 5918  -0.025   6.475   5.434  1.1614 -0.1068  1.8724
 1493SOL     OW 5919   1.986   7.382   9.628 -0.2050  0.0370  0.2251
 1493SOL    HW1 5920   2.008   7.425   9.545  0.5588 -1.7498 -0.5573
 1493SOL    HW2 5921   1.895   7.408   9.644 -0.3904  0.3969 -1.2032
 1494SOL     OW 5922   2.586   4.512  10.733  0.5345 -0.1368 -0.0441
 1494SOL    HW1 5923   2.527   4.585  10.752  0.4815  0.0596 -0.9317
 1494SOL    HW2 5924   2.533   4.449  10.686  0.9194 -0.1483 -0.4717
 1495SOL     OW 5925   0.495   6.466   8.069 -0.0138  0.1782  0.3407
 1495SOL    HW1 5926   0.526   6.512   7.991 -0.6317  1.1085  0.6349
 1495SOL    HW2 5927   0.401   6.459   8.057 -0.0223 -0.3191  0.6726
 1496SOL     OW 5928   1.459   5.607   3.805  0.1188  0.3634 -0.5653
 1496SOL    HW1 5929   1.385   5.668   3.811  0.6607  1.0194 -0.4043
 1496SOL    HW2 5930   1.522   5.640   3.869  0.0618 -0.8825  0.1698
 1497SOL     OW 5931   5.910   3.859  11.786  0.3940 -0.0092  0.1952
 1497SOL    HW1 5932   5.902   3.872  11.691  2.2552 -1.1310 -0.1790
 1497SOL    HW2 5933   5.872   3.773  11.802  3.0045 -1.3358 -0.1562
 1498SOL     OW 5934   3.035   0.481   9.302 -0.0611 -0.1013 -0.1587
 1498SOL    HW1 5935   3.092   0.547   9.342  0.7546  0.0977 -1.5975
 1498SOL    HW2 5936   3.061   0.399   9.343  0.3699  0.1732  0.1243
 1499SOL     OW 5937   1.037   6.544   4.558  0.1224  0.1647 -0.2659
 1499SOL    HW1 5938   1.019   6.451   4.542  1.5856  0.2000 -2.5673
 1499SOL    HW2 5939   1.122   6.544   4.602  0.0212  0.4098 -0.0708
 1500SOL     OW 5940   7.942   1.736  11.217 -0.5367 -0.0849 -0.3273
 1500SOL    HW1 5941   8.037   1.730  11.213 -0.5490 -0.0849 -0.6124
 1500SOL    HW2 5942   7.924   1.766  11.306 -0.3578 -1.9116  0.3647
 1501SOL     OW 5943   7.491   7.374   4.861 -0.6240 -0.3281 -0.0309
 1501SOL    HW1 5944   7.404   7.345   4.889 -1.0657 -0.6823 -1.6632
 1501SOL    HW2 5945   7.542   7.293   4.852 -0.5327 -0.2353 -0.3698
 1502SOL     OW 5946   2.781   6.367  10.722 -0.4243  0.7445  0.0936
 1502SOL    HW1 5947   2.829   6.323  10.792  0.4181  0.8254 -0.4132
 1502SOL    HW2 5948   2.742   6.296  10.671  0.9186  0.5535 -0.7150
 1503SOL     OW 5949   6.167   5.062   1.769 -0.4344 -0.4418  0.3445
 1503SOL    HW1 5950   6.139   5.127   1.833 -1.0227 -0.7101  0.3712
 1503SOL    HW2 5951   6.120   5.085   1.689 -1.2177 -1.2362  0.5482
 1504SOL     OW 5952   0.742   4.663  11.884  0.0264  0.0422 -0.4214
 1504SOL    HW1 5953   0.672   4.720  11.850  0.3075 -0.8659 -2.6998
 1504SOL    HW2 5954   0.732   4.581  11.835  0.3076 -1.5383  1.9959
 1505SOL     OW 5955   0.415   7.559  10.242  0.1809  0.4729 -0.5188
 1505SOL    HW1 5956   0.425   7.543  10.149 -1.4806 -1.2392 -0.4748
 1505SOL    HW2 5957   0.331   7.518  10.264  1.0821 -0.2126  1.9497
 1506SOL     OW 5958   4.140   1.737   2.064 -0.1654  0.0011  0.4876
 1506SOL    HW1 5959   4.191   1.672   2.015 -0.4561 -0.7086  1.1125
 1506SOL    HW2 5960   4.050   1.724   2.033  0.0332  1.4346 -0.8160
 1507SOL     OW 5961   1.051   1.623   5.206 -0.2935 -0.0450 -0.0004
 1507SOL    HW1 5962   1.055   1.644   5.299 -0.5738 -1.9190  0.4653
 1507SOL    HW2 5963   1.138   1.646   5.172  0.1742 -0.3822  0.9500
 1508SOL     OW 5964   4.328   1.700   8.758 -0.1906  0.2040  0.1725
 1508SOL    HW1 5965   4.266   1.751   8.811  1.2173  1.1062  1.0222
 1508SOL    HW2 5966   4.363   1.764   8.696  0.7998  0.0325  0.5371
 1509SOL     OW 5967   6.390   1.429   4.455  0.4071  0.0364  0.3148
 1509SOL    HW1 5968   6.371   1.492   4.524 -0.8606  0.3271 -0.2595
 1509SOL    HW2 5969   6.382   1.479   4.374  1.3213 -0.4253 -0.0738
 1510SOL     OW 5970   2.683   4.048   0.055 -0.2330  0.9330 -0.3615
 1510SOL    HW1 5971   2.667   4.074   0.145 -0.6945 -0.6239  0.0424
 1510SOL    HW2 5972   2.627   4.105   0.003 -1.3064  0.6736  0.4816
 1511SOL     OW 5973   3.173   2.452   5.319  0.2497 -0.2248 -0.2544
 1511SOL    HW1 5974   3.130   2.466   5.235  0.9807  0.1896 -0.5696
 1511SOL    HW2 5975   3.203   2.539   5.345 -0.5210 -0.2400  0.7501
 1512SOL     OW 5976   0.301   6.933   9.028 -0.3746  0.1901  0.4503
 1512SOL    HW1 5977   0.273   7.023   9.042  0.1150  0.6477 -1.2619
 1512SOL    HW2 5978   0.344   6.907   9.109 -1.0341  1.2909  1.1648
 1513SOL     OW 5979   2.678   7.455   4.190 -0.3679 -0.3514 -0.0052
 1513SOL    HW1 5980   2.701   7.542   4.224 -0.4164  0.2988 -1.5446
 1513SOL    HW2 5981   2.719   7.452   4.104 -0.3008 -1.9065  0.0653
 1514SOL     OW 5982   2.555   5.760   2.473 -0.4601 -0.1972 -0.0267
 1514SOL    HW1 5983   2.533   5.767   2.380 -0.4743 -1.2133 -0.1046
 1514SOL    HW2 5984   2.594   5.673   2.482  0.4703  0.2748  0.7341
 1515SOL     OW 5985   5.380   1.792   4.994  0.0278  0.1216  0.2787
 1515SOL    HW1 5986   5.411   1.850   4.924  1.1886 -0.2391  0.4639
 1515SOL    HW2 5987   5.332   1.723   4.950  0.5685  0.0137 -0.1538
 1516SOL     OW 5988   2.886   4.797   9.991  0.3607  0.2785 -0.4769
 1516SOL    HW1 5989   2.914   4.877   9.947  0.4444  0.7690  0.4436
 1516SOL    HW2 5990   2.830   4.827  10.062  0.9785 -0.4291  0.3295
 1517SOL     OW 5991   7.138   1.142   6.016  0.2627 -0.6844  0.0452
 1517SOL    HW1 5992   7.062   1.176   5.970 -0.6793 -0.6882  1.5546
 1517SOL    HW2 5993   7.212   1.165   5.960 -0.8376 -0.8310 -1.5407
 1518SOL     OW 5994   6.349   3.070   9.848  0.2989  0.1622 -0.5069
 1518SOL    HW1 5995   6.260   3.071   9.813 -0.1806 -0.0600  0.6298
 1518SOL    HW2 5996   6.380   2.981   9.831  0.7820  0.5964 -1.9987
 1519SOL     OW 5997   0.483   5.156   0.740  0.1606 -0.0573 -0.4038
 1519SOL    HW1 5998   0.570   5.192   0.719 -0.0597  2.1676  1.9924
 1519SOL    HW2 5999   0.489   5.133   0.833 -0.5891 -4.0079 -1.1791
 1520SOL     OW 6000   5.957   4.213   6.738  0.2811 -0.3027 -0.1404
 1520SOL    HW1 6001   6.012   4.278   6.693 -0.3265 -0.4607 -1.1467
 1520SOL    HW2 6002   5.936   4.149   6.670 -0.6889 -0.5434  0.3787
 1521SOL     OW 6003   3.176   7.428   4.032 -1.1889 -0.2477  0.7055
 1521SOL    HW1 6004   3.142   7.517   4.028 -1.0575 -0.2237  0.0170
 1521SOL    HW2 6005   3.116   7.376   3.979  0.9984  0.1941 -2.4379
 1522SOL     OW 6006   6.134   3.880  11.151 -0.2007 -0.3862 -0.1990
 1522SOL    HW1 6007   6.108   3.925  11.071 -0.9062 -1.0731 -0.3725
 1522SOL    HW2 6008   6.092   3.794  11.144  0.7818 -0.9179  0.3111
 1523SOL     OW 6009   6.168   1.453   1.565 -0.4551  0.5160 -0.4956
 1523SOL    HW1 6010   6.260   1.460   1.538 -0.2561 -1.2711 -0.3605
 1523SOL    HW2 6011   6.126   1.528   1.523  0.2777 -0.7788 -3.9393
 1524SOL     OW 6012   3.499   3.776  10.674  0.0260 -0.0729 -0.2894
 1524SOL    HW1 6013   3.478   3.849  10.615 -1.5211 -1.1412 -1.1079
 1524SOL    HW2 6014   3.595   3.771  10.671  0.0729  0.8474 -1.5545
 1525SOL     OW 6015   5.854   1.168   6.359  0.2413 -0.4210  0.0144
 1525SOL    HW1 6016   5.830   1.245   6.309  0.1172 -0.0488  0.6331
 1525SOL    HW2 6017   5.807   1.177   6.442  0.3839 -1.0563  0.1731
 1526SOL     OW 6018   2.674   0.601   1.903  0.5724 -0.4337  0.0907
 1526SOL    HW1 6019   2.627   0.685   1.904  0.1706 -0.6456 -0.5193
 1526SOL    HW2 6020   2.605   0.535   1.905  0.8570 -0.7500 -0.3761
 1527SOL     OW 6021   1.575   1.747  12.109 -0.4018  0.6222 -0.0744
 1527SOL    HW1 6022   1.568   1.662  12.154 -1.7591  1.0802  0.6335
 1527SOL    HW2 6023   1.588   1.724  12.017 -1.5668 -0.3843 -0.0240
 1528SOL     OW 6024   3.878   4.571   6.592 -0.2913  0.2900 -0.5548
 1528SOL    HW1 6025   3.955   4.597   6.541 -0.6180 -0.6685 -1.5780
 1528SOL    HW2 6026   3.873   4.636   6.662  2.0961 -0.2208  0.2007
 1529SOL     OW 6027   4.197   5.527  10.364 -0.5257 -0.8504  0.5299
 1529SOL    HW1 6028   4.155   5.572  10.291  0.1101 -2.5663 -0.9797
 1529SOL    HW2 6029   4.124   5.502  10.421 -1.1941 -0.6496 -0.2098
 1530SOL     OW 6030   3.395   6.608   7.015  0.9172 -0.0686  0.3071
 1530SOL    HW1 6031   3.398   6.641   7.104 -2.2508  0.8392  0.2007
 1530SOL    HW2 6032   3.425   6.681   6.961  3.0633 -0.6962  0.5513
 1531SOL     OW 6033   0.950   4.081   4.350  0.4614  0.3829  0.3591
 1531SOL    HW1 6034   1.027   4.103   4.296  2.0236  0.0839  2.3610
 1531SOL    HW2 6035   0.876   4.117   4.301  1.8968  1.0416 -1.4587
 1532SOL     OW 6036   6.421   3.833   8.907  0.3773  0.1678 -0.3037
 1532SOL    HW1 6037   6.380   3.761   8.859  0.7490 -0.1522 -0.1461
 1532SOL    HW2 6038   6.374   3.836   8.990 -1.0476  1.4736 -1.1188
 1533SOL     OW 6039   7.129   5.325   2.728 -0.6688 -0.3911  0.3029
 1533SOL    HW1 6040   7.040   5.357   2.740  0.0145  2.2998 -1.0195
 1533SOL    HW2 6041   7.147   5.338   2.635  0.5464 -2.5773  0.1696
 1534SOL     OW 6042   5.872   6.598  10.886  0.5618  1.3202  0.9457
 1534SOL    HW1 6043   5.831   6.553  10.811 -0.0602  1.8080  0.9761
 1534SOL    HW2 6044   5.847   6.546  10.962  2.1101  0.2052  0.7185
 1535SOL     OW 6045   5.435   7.362  12.214 -0.3146  0.1659  0.2178
 1535SOL    HW1 6046   5.460   7.297  12.279 -0.1744 -0.6205 -0.6131
 1535SOL    HW2 6047   5.487   7.439  12.236  0.0881 -0.2512  0.7396
 1536SOL     OW 6048   2.740   5.812   3.851  0.3433  0.5573 -0.1120
 1536SOL    HW1 6049   2.811   5.752   3.872  0.7946  1.2111  0.2895
 1536SOL    HW2 6050   2.733   5.809   3.756  0.8526  0.4147 -0.1464
 1537SOL     OW 6051   6.225   3.460   2.986 -0.0679 -0.4686 -0.2520
 1537SOL    HW1 6052   6.278   3.384   3.008  0.6084 -0.4520 -1.7010
 1537SOL    HW2 6053   6.280   3.535   3.010 -0.3693 -0.4291  0.3373
 1538SOL     OW 6054   2.320   1.746   4.490 -0.1793  0.1928  0.4745
 1538SOL    HW1 6055   2.349   1.837   4.487 -0.5303  0.3950  2.2542
 1538SOL    HW2 6056   2.226   1.750   4.475  0.0708 -0.1024 -1.4343
 1539SOL     OW 6057   6.374   2.525  10.130 -0.0565  0.7379  0.3858
 1539SOL    HW1 6058   6.454   2.510  10.078 -1.4452  0.6041 -1.8660
 1539SOL    HW2 6059   6.303   2.499  10.071 -1.7444 -0.0102  2.6450
 1540SOL     OW 6060   2.719   4.158   6.545  0.3488  0.4518  0.0127
 1540SOL    HW1 6061   2.806   4.198   6.543 -1.1225  3.9954 -3.2271
 1540SOL    HW2 6062   2.659   4.231   6.555 -2.4008 -1.6864  0.2850
 1541SOL     OW 6063   2.325   0.039   0.537  0.4107 -0.3652  0.0573
 1541SOL    HW1 6064   2.251  -0.021   0.547  1.7154 -2.2922 -1.1312
 1541SOL    HW2 6065   2.289   0.113   0.488 -0.4716 -1.9324 -1.7854
 1542SOL     OW 6066   5.874   7.919   6.033  0.3392 -0.1203  0.3582
 1542SOL    HW1 6067   5.929   7.986   5.993 -1.5522  1.8294  0.8446
 1542SOL    HW2 6068   5.824   7.882   5.960  0.1817  0.1900  0.3087
 1543SOL     OW 6069   6.333   4.085   9.527  0.4151  0.3148 -0.0049
 1543SOL    HW1 6070   6.367   4.006   9.484 -0.7718 -0.4120  0.3248
 1543SOL    HW2 6071   6.320   4.058   9.618 -1.0367  0.5306 -0.1273
 1544SOL     OW 6072   4.166   1.440   0.709 -0.1893  0.5045  0.6394
 1544SOL    HW1 6073   4.249   1.420   0.752 -0.1758 -0.2196  0.3024
 1544SOL    HW2 6074   4.192   1.489   0.631 -0.0522  0.1057  0.4276
 1545SOL     OW 6075   0.317   4.333   6.874 -0.6827 -0.4062  0.3141
 1545SOL    HW1 6076   0.250   4.368   6.932  0.6622  1.5341  0.7914
 1545SOL    HW2 6077   0.355   4.410   6.832  1.3701 -1.4207  0.2101
 1546SOL     OW 6078   5.790   4.509  10.504 -0.2487  0.2114  0.5138
 1546SOL    HW1 6079   5.806   4.582  10.563  1.0750  0.0498  0.3779
 1546SOL    HW2 6080   5.748   4.549  10.427  0.4393  0.8361  0.4511
 1547SOL     OW 6081   1.325   7.878   6.726  0.2645 -1.3309 -0.3392
 1547SOL    HW1 6082   1.370   7.925   6.656  0.4420 -0.3647  0.4110
 1547SOL    HW2 6083   1.273   7.944   6.771 -1.4487 -2.3070 -0.7860
 1548SOL     OW 6084   4.402   5.401   3.409  0.3377 -0.1939 -0.5937
 1548SOL    HW1 6085   4.405   5.355   3.493  0.0241  0.0145 -0.4631
 1548SOL    HW2 6086   4.420   5.493   3.432  1.3455 -0.3098 -0.9008
 1549SOL     OW 6087   5.824   6.408   5.058 -1.0166 -0.0168 -0.1368
 1549SOL    HW1 6088   5.781   6.392   5.142 -0.1595 -1.3995  0.0673
 1549SOL    HW2 6089   5.758   6.387   4.992 -0.8754 -1.5665  0.1785
 1550SOL     OW 6090   2.506   5.666   4.827  0.0199  0.0011 -0.0258
 1550SOL    HW1 6091   2.596   5.635   4.837 -0.0114  0.2385  1.2501
 1550SOL    HW2 6092   2.463   5.639   4.908 -0.9901  0.1171 -0.5136
 1551SOL     OW 6093   7.239   4.691   6.740 -1.3345 -0.3048  0.2646
 1551SOL    HW1 6094   7.209   4.710   6.651 -1.3002 -0.9672  0.1041
 1551SOL    HW2 6095   7.163   4.709   6.796 -1.6617 -0.8303 -0.0072
 1552SOL     OW 6096   6.250   6.425  10.184  0.0036 -0.1249  0.6881
 1552SOL    HW1 6097   6.241   6.465  10.098  0.7051 -1.4560 -0.0326
 1552SOL    HW2 6098   6.280   6.496  10.241 -0.5174  0.7779 -0.1495
 1553SOL     OW 6099   7.700   4.881   6.720 -0.2638 -0.4142  0.6193
 1553SOL    HW1 6100   7.624   4.860   6.666  0.4064  1.5646 -1.2155
 1553SOL    HW2 6101   7.760   4.926   6.661  0.9606  0.9697  2.7809
 1554SOL     OW 6102   3.444   7.363   0.256  0.2843  0.5443 -0.2632
 1554SOL    HW1 6103   3.393   7.440   0.231  0.4348  0.6549 -0.2348
 1554SOL    HW2 6104   3.476   7.383   0.344  0.7171  0.6544 -0.4413
 1555SOL     OW 6105   3.309   4.257   0.450 -0.6911  0.1617  0.0086
 1555SOL    HW1 6106   3.255   4.245   0.372  1.5014  0.9942 -1.7760
 1555SOL    HW2 6107   3.274   4.337   0.491 -1.8433 -0.2611 -0.1166
 1556SOL     OW 6108   6.318   2.866   6.779  0.5914 -0.0723  0.2642
 1556SOL    HW1 6109   6.335   2.819   6.698 -0.8281 -0.4618  0.1703
 1556SOL    HW2 6110   6.345   2.956   6.760 -0.8738  0.1134 -1.0737
 1557SOL     OW 6111   3.126   6.698   4.867 -0.2372 -0.4016  0.1152
 1557SOL    HW1 6112   3.099   6.733   4.952  0.4788 -1.3033  0.7319
 1557SOL    HW2 6113   3.068   6.623   4.853  0.2153 -0.7814  0.2338
 1558SOL     OW 6114   2.542   5.269   3.428  0.2104  0.5079  0.3463
 1558SOL    HW1 6115   2.624   5.244   3.471 -0.3199 -1.4013  0.3242
 1558SOL    HW2 6116   2.474   5.253   3.493 -0.5668 -2.0456 -0.9583
 1559SOL     OW 6117   7.514   2.690   2.717 -0.1638 -0.0233 -0.5712
 1559SOL    HW1 6118   7.454   2.672   2.645 -1.1222  0.2983  0.1229
 1559SOL    HW2 6119   7.600   2.664   2.684 -0.7093 -0.6927 -1.5157
 1560SOL     OW 6120   5.720   3.944   2.084 -0.0813 -0.3696 -0.2541
 1560SOL    HW1 6121   5.769   3.961   2.164  0.3760 -1.4894 -0.2723
 1560SOL    HW2 6122   5.668   3.866   2.104 -2.8148  1.4091  0.1540
 1561SOL     OW 6123   4.945   1.988   0.093  0.3701  0.1469  0.1085
 1561SOL    HW1 6124   4.933   2.039   0.173  0.4795  0.2922  0.0338
 1561SOL    HW2 6125   4.857   1.960   0.070  0.2601  0.5842 -0.0291
 1562SOL     OW 6126   7.348   6.766   7.507 -0.0490  0.6707  0.4130
 1562SOL    HW1 6127   7.335   6.807   7.421  0.2393  0.1477  0.1159
 1562SOL    HW2 6128   7.339   6.838   7.569 -1.4858  0.8505  0.0415
 1563SOL     OW 6129   4.915   6.859   7.284 -0.0551  0.0948  0.2045
 1563SOL    HW1 6130   4.838   6.825   7.328  1.1311 -0.1003  2.2900
 1563SOL    HW2 6131   4.881   6.925   7.223 -1.8654 -0.1441  0.8979
 1564SOL     OW 6132   4.595   5.750   4.226 -0.1059 -0.4925  0.6342
 1564SOL    HW1 6133   4.679   5.793   4.206 -1.2446  1.6218  0.0316
 1564SOL    HW2 6134   4.530   5.801   4.178 -1.6127 -3.1294 -0.3407
 1565SOL     OW 6135   7.906   7.884   9.869 -0.2388 -0.4215  0.0455
 1565SOL    HW1 6136   7.880   7.943   9.939  0.2276 -0.6591  0.4278
 1565SOL    HW2 6137   8.000   7.872   9.882 -0.4423 -1.8104  0.4216
 1566SOL     OW 6138   3.070   0.741   5.802  0.0219 -0.5929  0.3726
 1566SOL    HW1 6139   3.131   0.778   5.738 -0.1927  0.1875  0.6162
 1566SOL    HW2 6140   3.101   0.651   5.815  0.8505 -0.3471  0.1560
 1567SOL     OW 6141   0.054   3.362   3.439 -0.0847  0.1145 -0.0686
 1567SOL    HW1 6142  -0.016   3.357   3.505 -0.6985 -0.4517 -0.7443
 1567SOL    HW2 6143   0.036   3.290   3.379  1.6910 -0.6988  0.3137
 1568SOL     OW 6144   0.724   2.602   3.505 -0.9068  0.0059 -0.1288
 1568SOL    HW1 6145   0.697   2.582   3.415 -0.7017 -0.0661 -0.1760
 1568SOL    HW2 6146   0.655   2.565   3.560 -0.7364 -0.4767 -0.2344
 1569SOL     OW 6147   5.118   2.042  10.946 -0.3255 -0.1332  0.3597
 1569SOL    HW1 6148   5.111   2.058  10.852 -0.9792 -0.7064  0.3007
 1569SOL    HW2 6149   5.137   2.128  10.984 -2.9654  0.7103 -0.0266
 1570SOL     OW 6150   3.155   7.456   1.682 -0.0801 -0.0950  0.4107
 1570SOL    HW1 6151   3.225   7.513   1.649 -0.6309 -0.8149 -2.2759
 1570SOL    HW2 6152   3.091   7.516   1.721  0.4014  0.9247 -0.3344
 1571SOL     OW 6153   0.197   5.849  11.636  0.4728  0.1992 -0.0910
 1571SOL    HW1 6154   0.126   5.897  11.593  0.1465 -0.7445 -0.6353
 1571SOL    HW2 6155   0.185   5.868  11.729 -1.0330 -0.6190 -0.0816
 1572SOL     OW 6156   1.778   2.619   1.628 -0.5567  0.1403  0.5297
 1572SOL    HW1 6157   1.814   2.693   1.579  0.0516  0.1222  0.9328
 1572SOL    HW2 6158   1.812   2.542   1.583 -1.8067  0.0730 -0.3520
 1573SOL     OW 6159   1.759   1.799   8.956  0.3750  0.0793 -0.0550
 1573SOL    HW1 6160   1.699   1.868   8.926 -1.5656 -1.0706  0.9913
 1573SOL    HW2 6161   1.780   1.824   9.046  1.1137  0.2385 -0.2700
 1574SOL     OW 6162   0.677   7.334   2.420  0.1992 -0.0232 -0.0854
 1574SOL    HW1 6163   0.759   7.318   2.375  0.7727  0.8793  0.5986
 1574SOL    HW2 6164   0.701   7.387   2.496 -1.2309  2.0273 -0.9579
 1575SOL     OW 6165   5.765   5.091   7.005  0.1905  0.1000 -0.1081
 1575SOL    HW1 6166   5.771   5.157   7.074  1.8752 -0.2860  0.1481
 1575SOL    HW2 6167   5.808   5.014   7.041 -1.8924 -1.2398 -0.3517
 1576SOL     OW 6168   0.013   2.274   9.070  0.1572 -0.5883  0.3669
 1576SOL    HW1 6169  -0.001   2.341   9.136 -1.9554 -1.2142  0.6340
 1576SOL    HW2 6170   0.068   2.316   9.004 -1.7508  1.7304  0.1189
 1577SOL     OW 6171   5.646   7.386   5.153 -0.2997 -0.0600  0.1237
 1577SOL    HW1 6172   5.692   7.303   5.165 -1.3781 -1.1349 -2.3985
 1577SOL    HW2 6173   5.553   7.362   5.153 -0.6463  1.1887 -0.4339
 1578SOL     OW 6174   0.621   1.488   8.835 -0.1649  0.7305 -0.5106
 1578SOL    HW1 6175   0.699   1.539   8.856 -0.5674  0.8645  0.7538
 1578SOL    HW2 6176   0.618   1.421   8.903 -0.6421  0.1407 -1.0996
 1579SOL     OW 6177   6.858   5.735   1.934 -0.1272 -0.2268  0.1229
 1579SOL    HW1 6178   6.803   5.698   2.002 -0.7945 -0.0449 -0.3112
 1579SOL    HW2 6179   6.932   5.675   1.928  1.1354  0.9182  2.5618
 1580SOL     OW 6180   0.623   5.651   9.815 -0.2037  0.4144 -0.5174
 1580SOL    HW1 6181   0.676   5.726   9.840  2.1955 -1.3229 -0.0623
 1580SOL    HW2 6182   0.612   5.659   9.720 -0.4247  1.5666 -0.4078
 1581SOL     OW 6183   3.779   2.793  10.951  0.7833  0.0793 -0.4021
 1581SOL    HW1 6184   3.691   2.763  10.928  0.2060  1.9237 -0.7510
 1581SOL    HW2 6185   3.783   2.783  11.046 -0.7346  2.1558 -0.0407
 1582SOL     OW 6186   5.445   5.183   4.920 -0.3334  0.2823  0.1109
 1582SOL    HW1 6187   5.464   5.132   4.841 -0.7064  1.1116 -0.5313
 1582SOL    HW2 6188   5.353   5.164   4.940 -0.4210  0.5594 -0.0249
 1583SOL     OW 6189   0.668   4.055   4.480  0.0849 -0.7300  0.1692
 1583SOL    HW1 6190   0.674   3.960   4.487  1.5612 -0.6722 -0.0203
 1583SOL    HW2 6191   0.624   4.071   4.397 -1.5075 -1.2364  0.8737
 1584SOL     OW 6192   6.788   0.634   4.610 -0.5786  1.1615  0.1377
 1584SOL    HW1 6193   6.697   0.657   4.587 -1.2846 -0.2302  1.4021
 1584SOL    HW2 6194   6.805   0.553   4.562  0.5075  2.1030 -1.1504
 1585SOL     OW 6195   3.923   5.653   7.839 -0.2290 -0.6372 -0.5441
 1585SOL    HW1 6196   4.002   5.616   7.879 -0.3842  0.9087  1.3156
 1585SOL    HW2 6197   3.866   5.674   7.913  0.2971  4.2436 -1.2572
 1586SOL     OW 6198   0.260   0.747   8.486 -0.1727 -0.2483  0.4280
 1586SOL    HW1 6199   0.196   0.685   8.451 -0.3898  1.0999 -1.7394
 1586SOL    HW2 6200   0.209   0.804   8.544 -0.5230 -0.3673  0.2392
 1587SOL     OW 6201   7.875   2.780   0.807  0.0376  0.5256  0.1852
 1587SOL    HW1 6202   7.897   2.870   0.781 -1.6554  0.3247 -2.3384
 1587SOL    HW2 6203   7.833   2.790   0.893  0.2284  2.1179  0.1221
 1588SOL     OW 6204   0.151   5.623   1.173 -0.4097 -0.4555 -0.4445
 1588SOL    HW1 6205   0.188   5.706   1.204  1.2042 -0.8229 -1.2453
 1588SOL    HW2 6206   0.092   5.648   1.102 -0.9186  0.0766  0.1467
 1589SOL     OW 6207   7.266   5.733   9.774 -0.4996  0.0764  0.4115
 1589SOL    HW1 6208   7.208   5.790   9.724 -1.3571 -0.3325  0.9162
 1589SOL    HW2 6209   7.238   5.745   9.865  0.7517  0.4908  0.7615
 1590SOL     OW 6210   1.436   7.015   2.868 -0.3879  0.2097 -0.2679
 1590SOL    HW1 6211   1.494   7.072   2.819  1.0028 -1.2868 -0.4325
 1590SOL    HW2 6212   1.416   6.943   2.809  0.1174 -0.8685  0.8338
 1591SOL     OW 6213   0.185   7.404  10.247  0.3066  0.2704 -0.8579
 1591SOL    HW1 6214   0.107   7.396  10.192 -1.1785  1.9249  0.8609
 1591SOL    HW2 6215   0.158   7.368  10.331  1.7381  0.0035 -0.4915
 1592SOL     OW 6216   3.494   3.673   6.877  0.0554  0.5008  0.0563
 1592SOL    HW1 6217   3.437   3.597   6.885 -1.8055  2.0100  2.8757
 1592SOL    HW2 6218   3.449   3.731   6.815 -0.5268  0.8705  0.8084
 1593SOL     OW 6219   0.520   3.755   6.452  0.1154  0.2352 -0.0915
 1593SOL    HW1 6220   0.474   3.677   6.422 -1.5967  1.1984 -0.0911
 1593SOL    HW2 6221   0.532   3.742   6.546 -0.3877  0.0709 -0.0499
 1594SOL     OW 6222   2.881   3.657   1.051  0.0579  0.5296  0.6920
 1594SOL    HW1 6223   2.827   3.722   1.006  0.8318  1.6061  1.2859
 1594SOL    HW2 6224   2.903   3.593   0.983 -1.1355  0.5898  0.2183
 1595SOL     OW 6225   4.245   2.328   2.182  0.5813  0.2396 -0.1489
 1595SOL    HW1 6226   4.320   2.280   2.216 -0.2016 -0.5123  0.5632
 1595SOL    HW2 6227   4.235   2.296   2.092  0.8770  0.0581 -0.1171
 1596SOL     OW 6228   6.987   4.047   3.839  0.2539  0.3238  0.0985
 1596SOL    HW1 6229   6.996   3.991   3.916  2.7455 -0.1687 -0.4824
 1596SOL    HW2 6230   7.045   4.008   3.774 -1.4122  0.9900 -1.9217
 1597SOL     OW 6231   1.991   4.427   5.448  0.0050 -0.5678  0.0147
 1597SOL    HW1 6232   2.073   4.469   5.421 -0.1187 -0.8674 -0.8355
 1597SOL    HW2 6233   1.985   4.446   5.542  0.5084  0.3624 -0.1292
 1598SOL     OW 6234   1.808   2.311   3.889 -0.2743 -0.0138  0.0395
 1598SOL    HW1 6235   1.860   2.251   3.943  0.6099 -0.2856 -1.0817
 1598SOL    HW2 6236   1.720   2.272   3.889 -0.5335  0.4551  1.9607
 1599SOL     OW 6237   0.298   2.259  11.054 -0.2950 -0.0742  0.3708
 1599SOL    HW1 6238   0.267   2.208  10.979  0.3803 -0.8626  0.6101
 1599SOL    HW2 6239   0.324   2.193  11.118 -0.7185  0.5870  1.2490
 1600SOL     OW 6240   3.742   2.793  12.375  0.1259  0.3626 -0.1681
 1600SOL    HW1 6241   3.709   2.801  12.286 -0.1723 -1.2898 -0.2496
 1600SOL    HW2 6242   3.789   2.875  12.392 -0.0820  0.8225 -1.7208
 1601SOL     OW 6243   3.745   7.346   5.391 -0.2020  0.1998  0.2044
 1601SOL    HW1 6244   3.757   7.295   5.471 -0.0119 -1.1322 -0.6382
 1601SOL    HW2 6245   3.810   7.311   5.330 -0.7911  0.7176 -0.7490
 1602SOL     OW 6246   7.452   5.489   6.755 -0.0365  0.1348  0.3574
 1602SOL    HW1 6247   7.460   5.396   6.776  0.3929 -0.0982 -0.8084
 1602SOL    HW2 6248   7.534   5.512   6.712 -0.5576  0.7940 -0.3144
 1603SOL     OW 6249   1.309   6.578   9.553 -0.3878  0.0896 -0.1632
 1603SOL    HW1 6250   1.288   6.664   9.516 -2.9222 -0.2804  0.2070
 1603SOL    HW2 6251   1.285   6.586   9.645 -0.9845 -1.0864 -0.1997
 1604SOL     OW 6252   2.240   1.878   6.042  0.0965 -0.1011  0.4968
 1604SOL    HW1 6253   2.234   1.877   5.946 -1.3862  1.1446  0.5276
 1604SOL    HW2 6254   2.168   1.936   6.069  0.5725 -0.3345  2.3589
 1605SOL     OW 6255   6.861   6.293   2.127 -0.1931  0.0165  0.6052
 1605SOL    HW1 6256   6.821   6.257   2.206  1.9217 -0.7719  1.3838
 1605SOL    HW2 6257   6.863   6.387   2.141  1.9235 -0.2357  2.4488
 1606SOL     OW 6258   2.396   3.167   9.350  0.6364  0.7954 -1.1566
 1606SOL    HW1 6259   2.414   3.206   9.264 -2.5770 -0.0934 -2.3680
 1606SOL    HW2 6260   2.469   3.106   9.364  2.5269  2.7102 -2.0278
 1607SOL     OW 6261   5.930   5.322  10.359 -0.1038 -0.4291 -0.1457
 1607SOL    HW1 6262   5.933   5.333  10.454 -0.9840  2.1689 -0.3397
 1607SOL    HW2 6263   5.847   5.279  10.342 -0.3749 -0.0607  0.2262
 1608SOL     OW 6264   2.788   6.834   6.306 -0.1064 -0.4461  0.2450
 1608SOL    HW1 6265   2.785   6.899   6.236 -1.2047  1.4374  1.9163
 1608SOL    HW2 6266   2.873   6.848   6.349 -0.0294 -0.6207  0.1488
 1609SOL     OW 6267   5.814   7.430   4.943 -0.2634  0.0760 -0.2524
 1609SOL    HW1 6268   5.731   7.436   4.895  1.4017  1.8076 -3.2015
 1609SOL    HW2 6269   5.839   7.338   4.937 -2.5773 -0.8501  2.0788
 1610SOL     OW 6270   1.445   4.423   7.519 -0.5114  0.6413 -1.1304
 1610SOL    HW1 6271   1.358   4.387   7.534  0.7049 -1.3694  2.1895
 1610SOL    HW2 6272   1.450   4.500   7.575  0.2583 -0.0851 -0.1627
 1611SOL     OW 6273   1.830   7.236   8.307 -0.3019  0.0198  0.3295
 1611SOL    HW1 6274   1.908   7.277   8.343 -0.8214 -0.3729  1.9811
 1611SOL    HW2 6275   1.853   7.143   8.299 -1.2726 -0.5296  2.9960
 1612SOL     OW 6276   0.644   0.515  11.509 -0.4701 -0.2462 -0.2178
 1612SOL    HW1 6277   0.736   0.541  11.520 -0.1271 -0.6062 -1.9458
 1612SOL    HW2 6278   0.638   0.430  11.553  0.5797 -1.2010 -1.8285
 1613SOL     OW 6279   0.918   7.762   2.737 -0.1529 -0.2896  0.1042
 1613SOL    HW1 6280   0.941   7.801   2.653  0.4625  0.1265  0.4584
 1613SOL    HW2 6281   0.880   7.834   2.788 -0.5995 -0.5586  0.1533
 1614SOL     OW 6282   7.584   1.994   6.045 -0.4777 -0.1067 -0.0445
 1614SOL    HW1 6283   7.595   1.939   6.123 -0.3928  2.8028  2.1385
 1614SOL    HW2 6284   7.673   2.023   6.024 -0.4751 -0.9988 -1.4242
 1615SOL     OW 6285   5.442   6.349   9.399 -0.0504 -0.1944 -0.8191
 1615SOL    HW1 6286   5.525   6.303   9.381  0.4792  0.9746 -1.5013
 1615SOL    HW2 6287   5.456   6.437   9.365 -1.3085  0.2602 -0.2112
 1616SOL     OW 6288   2.881   3.197  11.952  0.0576 -0.1671 -0.7235
 1616SOL    HW1 6289   2.874   3.290  11.932  0.6805  0.0786  0.1473
 1616SOL    HW2 6290   2.942   3.164  11.886  2.4689  0.7304  0.9368
 1617SOL     OW 6291   1.212   6.693   2.976 -0.1106 -0.6690  0.3162
 1617SOL    HW1 6292   1.162   6.755   3.028  0.5692 -0.5409  0.8178
 1617SOL    HW2 6293   1.223   6.617   3.033  0.0518 -0.7972  0.1160
 1618SOL     OW 6294   6.408   5.347  11.300  0.0314 -0.2723 -0.0933
 1618SOL    HW1 6295   6.414   5.432  11.343  1.2728 -0.4480  0.1202
 1618SOL    HW2 6296   6.437   5.284  11.367  0.0414 -0.7639 -0.5545
 1619SOL     OW 6297   7.534   6.784   5.977  0.3921 -0.0634 -0.2806
 1619SOL    HW1 6298   7.616   6.737   5.992  0.2476  0.1053  1.1766
 1619SOL    HW2 6299   7.485   6.773   6.058  0.1615  2.1860 -0.0550
 1620SOL     OW 6300   4.094   5.847  10.329  0.2697 -0.1178 -0.1370
 1620SOL    HW1 6301   4.147   5.821  10.254 -0.1473  0.2817 -0.5708
 1620SOL    HW2 6302   4.031   5.777  10.340  0.4287 -0.2497 -0.0633
 1621SOL     OW 6303   7.671   3.365   7.231  0.5645  0.9596  0.3631
 1621SOL    HW1 6304   7.749   3.393   7.280  1.4207  0.6138 -0.7490
 1621SOL    HW2 6305   7.605   3.349   7.298  1.2483  1.8873  1.2939
 1622SOL     OW 6306   6.998   7.790   4.170  0.0212  0.0673 -0.1548
 1622SOL    HW1 6307   6.945   7.859   4.133  0.4909  0.0949 -0.7972
 1622SOL    HW2 6308   7.081   7.832   4.192  1.4673 -0.8126 -3.3335
 1623SOL     OW 6309   2.832   2.244  10.801  0.1317 -0.4045 -0.2918
 1623SOL    HW1 6310   2.823   2.244  10.897  1.4520  0.0119 -0.1546
 1623SOL    HW2 6311   2.834   2.336  10.777 -0.2960 -0.5079 -0.7532
 1624SOL     OW 6312   1.287   6.356   5.721 -0.1210  0.4311 -0.4003
 1624SOL    HW1 6313   1.308   6.288   5.785  0.2558 -0.6078 -1.6048
 1624SOL    HW2 6314   1.359   6.354   5.658  0.1901  2.3468 -0.1691
 1625SOL     OW 6315   2.514   0.687   7.593 -0.0123 -0.3074  0.1374
 1625SOL    HW1 6316   2.573   0.612   7.608  1.1430  0.4424 -0.4812
 1625SOL    HW2 6317   2.551   0.757   7.648 -0.4816  0.1000 -0.0674
 1626SOL     OW 6318   5.921   4.367   2.850 -0.1774 -0.7693  0.4509
 1626SOL    HW1 6319   5.842   4.364   2.796 -0.0088 -1.5229  0.2328
 1626SOL    HW2 6320   5.969   4.444   2.818 -0.5654 -0.6169  0.2248
 1627SOL     OW 6321   4.303   7.901   9.311 -0.4326  0.6954  0.0221
 1627SOL    HW1 6322   4.317   7.813   9.346 -1.4299  0.7935  0.7048
 1627SOL    HW2 6323   4.208   7.910   9.307 -0.3366  1.5148 -0.6491
 1628SOL     OW 6324   3.769   7.000   1.083  0.0273 -0.1424  0.6417
 1628SOL    HW1 6325   3.675   7.008   1.099  0.0415  0.3453  0.5012
 1628SOL    HW2 6326   3.775   6.951   1.001 -0.1570  1.2255 -0.2297
 1629SOL     OW 6327   0.642   0.618   5.370 -0.1687 -0.2687 -0.2889
 1629SOL    HW1 6328   0.555   0.589   5.396  0.4126 -1.2124  0.6897
 1629SOL    HW2 6329   0.628   0.668   5.289 -1.7974  0.9995  0.7100
 1630SOL     OW 6330   7.527   1.857   8.996  0.1905  0.1026 -0.1599
 1630SOL    HW1 6331   7.452   1.842   8.939  0.1489  0.4879 -0.2052
 1630SOL    HW2 6332   7.494   1.915   9.065  0.5625  0.6569 -0.4377
 1631SOL     OW 6333   1.434   7.069  12.205  0.7566 -0.3694  0.3282
 1631SOL    HW1 6334   1.467   7.115  12.128  1.5733 -0.9955  0.2806
 1631SOL    HW2 6335   1.486   6.988  12.208 -1.5109 -1.9544 -0.3640
 1632SOL     OW 6336   5.926   6.385   9.850 -0.1729  0.2919  0.4889
 1632SOL    HW1 6337   5.859   6.316   9.843  0.4355 -0.2382 -0.3451
 1632SOL    HW2 6338   5.999   6.343   9.894 -0.4232  0.9126  1.5199
 1633SOL     OW 6339   7.010   0.816   0.474 -0.2852  0.5458  0.3873
 1633SOL    HW1 6340   6.964   0.878   0.418  0.6530  1.2840  0.4231
 1633SOL    HW2 6341   7.081   0.866   0.513  0.3803 -0.5051  0.5638
 1634SOL     OW 6342   2.336   4.773   0.681 -0.1055  0.1950  0.4096
 1634SOL    HW1 6343   2.292   4.851   0.647  1.0724  1.4577  1.6711
 1634SOL    HW2 6344   2.310   4.769   0.773 -0.4748 -1.1723  0.2720
 1635SOL     OW 6345   0.345   1.416   5.392 -0.0477 -0.6923 -0.0527
 1635SOL    HW1 6346   0.297   1.453   5.466 -0.5415 -0.0921 -0.6713
 1635SOL    HW2 6347   0.418   1.369   5.433  1.5704  2.2360  0.7253
 1636SOL     OW 6348   5.469   0.196   0.063 -0.1321 -0.7002 -0.7165
 1636SOL    HW1 6349   5.500   0.107   0.048  0.8723 -0.8110  1.5845
 1636SOL    HW2 6350   5.488   0.242  -0.019  1.6126 -2.0091 -1.0987
 1637SOL     OW 6351   4.833   0.236   9.697 -0.2739 -0.4216  0.0166
 1637SOL    HW1 6352   4.928   0.233   9.687 -0.2096 -0.3349  0.5696
 1637SOL    HW2 6353   4.800   0.240   9.608  0.3073  1.3214 -0.1455
 1638SOL     OW 6354   3.359   2.165  10.466  0.2922 -0.5674 -0.4524
 1638SOL    HW1 6355   3.441   2.125  10.494 -0.0382 -2.2626 -1.7619
 1638SOL    HW2 6356   3.385   2.230  10.400  0.5837 -1.3169 -1.0931
 1639SOL     OW 6357   3.538   0.291   4.417  0.4482  0.0409 -0.2866
 1639SOL    HW1 6358   3.561   0.385   4.416  0.5841  0.0040 -0.6847
 1639SOL    HW2 6359   3.444   0.289   4.404  0.5219  0.0989 -0.8322
 1640SOL     OW 6360   5.123   2.941   3.260 -0.3919 -0.1562 -0.1132
 1640SOL    HW1 6361   5.029   2.958   3.250 -1.0963 -2.8906  1.0145
 1640SOL    HW2 6362   5.136   2.929   3.354  0.7236 -1.5874 -0.4139
 1641SOL     OW 6363   7.307   5.518   0.960  0.3274  0.0739  0.2078
 1641SOL    HW1 6364   7.250   5.441   0.969  0.5713 -0.3100 -1.1990
 1641SOL    HW2 6365   7.389   5.491   1.002 -0.1557  0.2494  1.3141
 1642SOL     OW 6366   2.492   5.762   8.370 -0.0062 -0.3030  0.0809
 1642SOL    HW1 6367   2.559   5.773   8.438 -1.3832 -1.7484  1.7821
 1642SOL    HW2 6368   2.539   5.722   8.297  1.3180  0.2625  0.5808
 1643SOL     OW 6369   2.533   6.133   0.795 -0.3124 -0.3706 -0.2280
 1643SOL    HW1 6370   2.474   6.058   0.797 -0.6344 -0.1331 -0.6593
 1643SOL    HW2 6371   2.475   6.209   0.797 -0.0309 -0.1374 -0.8355
 1644SOL     OW 6372   5.637   4.143   5.885 -0.3326 -0.8897 -0.2166
 1644SOL    HW1 6373   5.551   4.165   5.850 -1.8382 -1.4547  2.7391
 1644SOL    HW2 6374   5.678   4.227   5.904 -1.1629 -0.5889  0.3032
 1645SOL     OW 6375   0.049   4.584   7.380 -0.1370  0.4462 -0.0153
 1645SOL    HW1 6376  -0.008   4.642   7.430 -1.0302 -0.3376 -0.0864
 1645SOL    HW2 6377   0.120   4.562   7.441 -1.0033 -0.1848  0.8042
 1646SOL     OW 6378   2.623   7.044  10.300 -0.7035 -0.2756  0.2067
 1646SOL    HW1 6379   2.629   6.974  10.366  0.6722 -0.3111  0.0657
 1646SOL    HW2 6380   2.542   7.025  10.253 -0.6159 -1.4874  0.5079
 1647SOL     OW 6381   0.806   7.585   0.285 -0.5909  0.2239 -0.0623
 1647SOL    HW1 6382   0.760   7.536   0.217 -1.2721  0.3548  0.2829
 1647SOL    HW2 6383   0.750   7.576   0.363 -0.7047  1.4701  0.0285
 1648SOL     OW 6384   7.226   4.098   9.830  0.4496  0.3437  0.0470
 1648SOL    HW1 6385   7.140   4.056   9.820  0.2369  0.4404  1.3061
 1648SOL    HW2 6386   7.234   4.154   9.752 -0.3399 -0.1515 -0.4124
 1649SOL     OW 6387   0.058   2.608   0.377  0.1129  0.1596  0.1368
 1649SOL    HW1 6388   0.136   2.642   0.332 -0.2762 -0.3315 -0.9483
 1649SOL    HW2 6389   0.072   2.629   0.469  0.4396  2.1960 -0.3294
 1650SOL     OW 6390   3.064   5.589   9.520 -0.5234  0.1179 -0.0873
 1650SOL    HW1 6391   3.036   5.518   9.578 -0.1396  1.3539  1.6621
 1650SOL    HW2 6392   3.072   5.547   9.434  0.8362 -2.2529  1.0979
 1651SOL     OW 6393   6.052   6.600   9.208 -0.0400 -0.0906 -0.7590
 1651SOL    HW1 6394   6.124   6.636   9.155  1.5632 -0.9256  0.7720
 1651SOL    HW2 6395   6.006   6.677   9.240  0.3351  0.4714 -1.5262
 1652SOL     OW 6396   2.048   1.004  11.467  0.5166  0.0458  0.1632
 1652SOL    HW1 6397   2.056   0.923  11.418  3.5142  0.0097  0.5791
 1652SOL    HW2 6398   2.025   1.070  11.401 -0.5665 -0.8376 -0.3875
 1653SOL     OW 6399   3.741   2.307   6.801 -0.1481  0.6135  0.6498
 1653SOL    HW1 6400   3.826   2.272   6.827 -0.6972 -1.4621 -0.2015
 1653SOL    HW2 6401   3.760   2.397   6.773  2.2168 -0.5094 -1.7299
 1654SOL     OW 6402   2.511   6.956   6.459  0.0577  0.5346  0.2963
 1654SOL    HW1 6403   2.514   7.048   6.430 -1.7805  0.4837 -0.1618
 1654SOL    HW2 6404   2.424   6.946   6.497  0.3538 -0.9533  0.6201
 1655SOL     OW 6405   0.417   5.124   9.825 -0.4216  0.6395  0.0461
 1655SOL    HW1 6406   0.440   5.139   9.917 -0.1310 -2.5294  0.5865
 1655SOL    HW2 6407   0.486   5.170   9.776  1.1825 -0.1181  1.4949
 1656SOL     OW 6408   0.587   4.396   3.546  0.5396 -0.2192 -0.1116
 1656SOL    HW1 6409   0.567   4.311   3.505 -0.5535 -0.5038  0.9350
 1656SOL    HW2 6410   0.662   4.378   3.603  0.6208 -0.3697 -0.2653
 1657SOL     OW 6411   1.534   5.117   2.612  0.8824 -0.1049  0.4927
 1657SOL    HW1 6412   1.568   5.206   2.623 -0.5395  0.5530 -0.2469
 1657SOL    HW2 6413   1.449   5.118   2.654  0.6554 -0.9914  0.0765
 1658SOL     OW 6414   1.836   1.191   4.769  0.1300  0.0986  0.4728
 1658SOL    HW1 6415   1.860   1.137   4.694 -0.0275 -0.6292  0.9327
 1658SOL    HW2 6416   1.907   1.256   4.775 -0.6104  1.1225 -1.1853
 1659SOL     OW 6417   0.028   2.499   3.574 -0.0924 -0.3153 -0.2899
 1659SOL    HW1 6418  -0.029   2.537   3.642 -0.5261 -1.7164  0.1666
 1659SOL    HW2 6419   0.020   2.560   3.500 -1.8024 -0.1902 -0.0570
 1660SOL     OW 6420   6.250   4.178   0.223 -0.1376  0.0576  0.7042
 1660SOL    HW1 6421   6.252   4.146   0.313  1.0320 -0.7455  0.4150
 1660SOL    HW2 6422   6.341   4.169   0.192 -0.7379 -0.8125 -0.9273
 1661SOL     OW 6423   6.811   7.496   2.808  0.1955  0.0699 -0.2624
 1661SOL    HW1 6424   6.864   7.544   2.744 -0.1602 -0.2699 -0.8324
 1661SOL    HW2 6425   6.792   7.413   2.765 -2.6122  0.9699 -1.0408
 1662SOL     OW 6426   4.555   6.718   6.256 -0.3113 -0.2066  0.3439
 1662SOL    HW1 6427   4.464   6.724   6.228  0.1472 -0.1811 -1.2523
 1662SOL    HW2 6428   4.554   6.653   6.327 -1.7828  1.0000  1.4994
 1663SOL     OW 6429   7.346   2.517  11.307  0.2362 -0.1885 -0.3346
 1663SOL    HW1 6430   7.289   2.483  11.238  0.2896 -0.1662 -0.3898
 1663SOL    HW2 6431   7.401   2.443  11.332  1.4185  0.2576 -1.5294
 1664SOL     OW 6432   1.902   6.826   0.260  0.9503  0.4874  0.1853
 1664SOL    HW1 6433   1.860   6.775   0.191 -1.4107  1.3997  0.8304
 1664SOL    HW2 6434   1.994   6.828   0.236  0.5512 -1.0784 -1.7282
 1665SOL     OW 6435   6.655   2.853   1.862 -0.0082 -0.2990  0.0862
 1665SOL    HW1 6436   6.597   2.777   1.862 -2.0040  1.1401  0.6258
 1665SOL    HW2 6437   6.623   2.908   1.791 -0.0470  1.0582  1.1194
 1666SOL     OW 6438   6.709   4.238   5.370 -0.0010  0.1332  0.1720
 1666SOL    HW1 6439   6.745   4.299   5.434 -0.7858  1.0007 -0.1775
 1666SOL    HW2 6440   6.688   4.293   5.294  2.9571 -1.1606 -1.7711
 1667SOL     OW 6441   5.106   6.316   6.311  0.1340  0.0729  0.2589
 1667SOL    HW1 6442   5.064   6.241   6.269 -0.8496 -0.1434  1.5682
 1667SOL    HW2 6443   5.049   6.390   6.291  1.0789  0.5046 -0.9908
 1668SOL     OW 6444   3.603   0.749   1.203  0.0111 -0.2055 -0.3347
 1668SOL    HW1 6445   3.681   0.747   1.259  0.1602  1.0760 -0.4588
 1668SOL    HW2 6446   3.542   0.806   1.250 -1.8604 -3.0682  0.9829
 1669SOL     OW 6447   4.979   5.533  11.694 -0.7521  0.1289 -0.1975
 1669SOL    HW1 6448   5.069   5.531  11.662 -0.3425 -0.0471  0.9039
 1669SOL    HW2 6449   4.926   5.502  11.621 -0.1847  2.3681 -1.6762
 1670SOL     OW 6450   6.740   4.448   6.817  0.6741  0.6701  0.1149
 1670SOL    HW1 6451   6.750   4.399   6.898 -0.1836 -0.4953 -0.4433
 1670SOL    HW2 6452   6.823   4.437   6.771 -0.0496 -1.8002 -0.7670
 1671SOL     OW 6453   0.936   6.321   1.088  0.0503 -0.2360  0.0810
 1671SOL    HW1 6454   0.854   6.303   1.041 -0.4391 -0.1128  0.8611
 1671SOL    HW2 6455   1.003   6.324   1.019 -1.0120  2.5666 -0.9863
 1672SOL     OW 6456   6.886   3.869  10.724 -0.1868  0.0211 -0.1873
 1672SOL    HW1 6457   6.791   3.871  10.715 -0.4045  1.0437  1.7186
 1672SOL    HW2 6458   6.911   3.962  10.727  0.6744 -0.2293  0.8349
 1673SOL     OW 6459   7.450   1.824  10.003  0.1477 -0.0033  0.3138
 1673SOL    HW1 6460   7.362   1.799  10.033 -0.6108  0.8660 -1.0280
 1673SOL    HW2 6461   7.509   1.764  10.048 -1.3094 -2.0672 -0.3593
 1674SOL     OW 6462   0.261   3.756  10.274  0.4266  0.2048  0.0901
 1674SOL    HW1 6463   0.222   3.718  10.195 -1.0053  0.1225  0.8126
 1674SOL    HW2 6464   0.338   3.803  10.242  0.8068 -1.1935 -1.1412
 1675SOL     OW 6465   5.993   4.388   2.084 -0.1538  0.1819 -0.0531
 1675SOL    HW1 6466   6.017   4.362   1.995 -0.9875 -0.2014 -0.1804
 1675SOL    HW2 6467   5.902   4.416   2.077 -0.9215 -1.8027  1.0110
 1676SOL     OW 6468   0.667   1.291   6.028 -0.3952  0.0864  0.0089
 1676SOL    HW1 6469   0.742   1.344   6.052 -2.8030  3.8853  0.0092
 1676SOL    HW2 6470   0.645   1.242   6.107  0.0563  1.5896  1.1015
 1677SOL     OW 6471   5.966   0.438   7.804  0.6909  0.3732  0.7225
 1677SOL    HW1 6472   5.878   0.469   7.826  1.0815  1.0817  1.3702
 1677SOL    HW2 6473   5.958   0.401   7.717 -0.6144 -1.0992  1.4213
 1678SOL     OW 6474   3.052   6.974  11.450 -0.3797  0.1751  0.7704
 1678SOL    HW1 6475   2.991   6.957  11.377 -1.1829  1.8371  1.0066
 1678SOL    HW2 6476   3.017   6.923  11.523  0.0882 -1.0289  0.1784
 1679SOL     OW 6477   5.854   5.733   2.338  0.3682 -0.2087 -0.7591
 1679SOL    HW1 6478   5.765   5.697   2.334  0.0558  0.5271 -0.6909
 1679SOL    HW2 6479   5.893   5.711   2.253 -0.2626  0.4035 -1.2222
 1680SOL     OW 6480   5.403   1.159   7.773 -0.0607 -0.8866 -0.2046
 1680SOL    HW1 6481   5.406   1.181   7.866 -0.2818 -0.8010 -0.2189
 1680SOL    HW2 6482   5.388   1.243   7.729 -0.5977 -1.0214 -0.2781
 1681SOL     OW 6483   2.163   5.223   5.257  0.0155  0.1461  0.8065
 1681SOL    HW1 6484   2.080   5.264   5.282 -0.9207  0.4027 -2.3008
 1681SOL    HW2 6485   2.138   5.136   5.226  1.1916 -0.4702  1.5156
 1682SOL     OW 6486   5.676   0.866   6.229 -0.2332 -0.0000  0.0383
 1682SOL    HW1 6487   5.617   0.862   6.304  0.5730  0.0453  0.6769
 1682SOL    HW2 6488   5.635   0.930   6.170 -0.0569  1.1833  1.1569
 1683SOL     OW 6489   6.906   4.871   0.071 -0.1042  0.3278  0.1908
 1683SOL    HW1 6490   6.941   4.865  -0.018 -1.7585  0.1108 -0.4797
 1683SOL    HW2 6491   6.893   4.780   0.097 -1.2743  0.4244 -0.0374
 1684SOL     OW 6492   4.698   1.893   0.018 -0.3052 -0.1235 -0.2365
 1684SOL    HW1 6493   4.632   1.954  -0.013  1.0943  0.9953 -1.1070
 1684SOL    HW2 6494   4.727   1.846  -0.060 -0.4100 -0.9542  0.2111
 1685SOL     OW 6495   3.398   6.515   3.617 -0.2333 -0.2368 -1.1833
 1685SOL    HW1 6496   3.373   6.601   3.583  1.2983  1.0922  0.8216
 1685SOL    HW2 6497   3.449   6.534   3.696 -0.9379 -3.0482  0.0697
 1686SOL     OW 6498   5.240   4.442   9.629 -0.7805  0.1836 -0.3663
 1686SOL    HW1 6499   5.193   4.359   9.633  0.9263 -0.8134  0.3367
 1686SOL    HW2 6500   5.295   4.434   9.550  0.6637 -0.1286  0.6264
 1687SOL     OW 6501   5.500   7.151   9.379  0.1012 -0.9953  0.8198
 1687SOL    HW1 6502   5.487   7.097   9.301 -1.0188  0.1735  0.1684
 1687SOL    HW2 6503   5.541   7.091   9.443 -0.0946 -2.2986 -0.2345
 1688SOL     OW 6504   0.171   1.295   7.036  0.9223  0.1822  0.4614
 1688SOL    HW1 6505   0.236   1.364   7.039  0.3643  0.7546 -0.2171
 1688SOL    HW2 6506   0.132   1.302   6.948 -0.0743 -0.1206  0.8653
 1689SOL     OW 6507   2.117   7.806   0.523 -0.6170 -0.0067  0.1389
 1689SOL    HW1 6508   2.064   7.741   0.568 -0.1844 -0.6361 -0.2427
 1689SOL    HW2 6509   2.061   7.840   0.453 -1.2736  0.9409  1.1081
 1690SOL     OW 6510   6.152   2.684  11.189 -0.1579 -0.0618  0.2282
 1690SOL    HW1 6511   6.170   2.692  11.096 -0.1668 -0.2616  0.2083
 1690SOL    HW2 6512   6.227   2.636  11.224 -0.5601 -0.7514  0.1716
 1691SOL     OW 6513   6.943   0.818   5.336 -0.2350  0.1716  0.1956
 1691SOL    HW1 6514   6.950   0.739   5.390  0.2967  0.9490  1.3136
 1691SOL    HW2 6515   7.033   0.851   5.332 -0.3976  0.5367 -0.5579
 1692SOL     OW 6516   2.086   3.620   5.837 -0.0862 -0.0968  0.5331
 1692SOL    HW1 6517   2.137   3.565   5.777  1.1698 -0.3963  1.8349
 1692SOL    HW2 6518   1.995   3.604   5.812  0.3025 -1.8677  0.1180
 1693SOL     OW 6519   5.244   6.061   1.609  0.4642 -0.6105  0.6154
 1693SOL    HW1 6520   5.287   6.103   1.535 -0.8252  1.0153  0.7278
 1693SOL    HW2 6521   5.176   6.006   1.570  0.1700 -0.2141  0.5685
 1694SOL     OW 6522   0.520   3.214   8.546  0.0605 -0.5697  0.1694
 1694SOL    HW1 6523   0.551   3.198   8.635  1.9494  0.1811 -0.3129
 1694SOL    HW2 6524   0.551   3.302   8.525 -2.7023  0.3999 -0.2969
 1695SOL     OW 6525   0.556   0.330   7.460 -0.6600 -0.1148 -0.0081
 1695SOL    HW1 6526   0.557   0.405   7.400 -1.5694  0.3053  0.4969
 1695SOL    HW2 6527   0.531   0.367   7.544 -1.4561 -1.0371  0.1735
 1696SOL     OW 6528   7.946   2.239   9.511  0.2850 -0.2523  0.1730
 1696SOL    HW1 6529   8.012   2.289   9.559 -0.4042  1.4682 -0.6245
 1696SOL    HW2 6530   7.912   2.299   9.446 -0.4167 -1.8433 -1.0042
 1697SOL     OW 6531   1.368   2.406   2.676 -0.1270 -0.4137 -0.0541
 1697SOL    HW1 6532   1.297   2.403   2.612 -0.2172  1.2709 -0.0911
 1697SOL    HW2 6533   1.443   2.441   2.628 -0.5794  2.2372  0.9913
 1698SOL     OW 6534   0.268   0.279   6.558 -0.2386  0.7517  0.0223
 1698SOL    HW1 6535   0.183   0.249   6.590 -0.2817  0.0184 -0.7763
 1698SOL    HW2 6536   0.258   0.374   6.552 -1.8812  0.5157 -2.4567
 1699SOL     OW 6537   5.379   4.673   8.970  0.1697 -0.2277  0.1042
 1699SOL    HW1 6538   5.378   4.708   8.880 -1.8719 -1.0755 -0.2594
 1699SOL    HW2 6539   5.406   4.582   8.960 -0.4719 -0.4442  0.2745
 1700SOL     OW 6540   4.697   5.126   7.021 -0.3751 -0.3377  0.3823
 1700SOL    HW1 6541   4.643   5.161   6.950 -2.1587  0.0319  1.8567
 1700SOL    HW2 6542   4.726   5.204   7.069  0.1776 -0.6191  0.5084
 1701SOL     OW 6543   3.468   5.876   8.112 -0.4117 -0.2937  0.4905
 1701SOL    HW1 6544   3.508   5.857   8.197  0.7097  1.5928  0.4418
 1701SOL    HW2 6545   3.378   5.900   8.132 -0.8600 -2.1325  0.8668
 1702SOL     OW 6546   3.747   6.672   6.752 -0.2629 -0.7534 -0.1547
 1702SOL    HW1 6547   3.692   6.601   6.784  0.5365 -1.2776  0.0933
 1702SOL    HW2 6548   3.764   6.725   6.830  0.8192 -1.4455  0.1067
 1703SOL     OW 6549   0.449   3.370   2.002 -0.4443  0.0915  0.1919
 1703SOL    HW1 6550   0.432   3.314   1.926  1.7753 -1.2858  0.6083
 1703SOL    HW2 6551   0.363   3.397   2.032 -1.4145 -0.0010 -2.3182
 1704SOL     OW 6552   2.313   4.006   5.946 -0.0056  0.1577  0.7250
 1704SOL    HW1 6553   2.253   3.947   5.991  0.0040  0.5486  1.2601
 1704SOL    HW2 6554   2.327   4.078   6.008  0.6054  0.3270  0.3941
 1705SOL     OW 6555   5.763   3.122   8.144  0.0186 -0.0620 -0.7733
 1705SOL    HW1 6556   5.732   3.212   8.153 -1.0183 -0.4178 -0.6270
 1705SOL    HW2 6557   5.825   3.125   8.072  1.2243  1.0595  0.2570
 1706SOL     OW 6558   6.459   3.534   5.074  0.4067  0.2981  0.1010
 1706SOL    HW1 6559   6.391   3.547   5.140  0.8275 -0.4605  0.7052
 1706SOL    HW2 6560   6.464   3.439   5.063 -0.1255  0.4255 -1.5347
 1707SOL     OW 6561   0.776   4.713   6.831  0.2444  0.6643  0.0918
 1707SOL    HW1 6562   0.767   4.805   6.854 -1.1834  0.4680  0.4362
 1707SOL    HW2 6563   0.758   4.709   6.738 -0.6649  0.6347  0.2562
 1708SOL     OW 6564   0.399   2.816   0.558 -0.2219 -0.3272  0.2189
 1708SOL    HW1 6565   0.329   2.757   0.588  1.2392 -1.7175  1.0316
 1708SOL    HW2 6566   0.392   2.892   0.616 -2.0998  0.3589 -0.8136
 1709SOL     OW 6567   7.722   7.661   9.073 -0.6365  0.1282  0.1288
 1709SOL    HW1 6568   7.641   7.702   9.103  0.6149  2.1682  0.9838
 1709SOL    HW2 6569   7.727   7.683   8.980 -2.1444 -2.0685 -0.5761
 1710SOL     OW 6570   2.314   5.356  10.184 -0.8729 -0.9066  0.4713
 1710SOL    HW1 6571   2.247   5.408  10.228  1.1661  0.8040  1.7358
 1710SOL    HW2 6572   2.359   5.418  10.127 -0.2510 -1.9836 -0.2492
 1711SOL     OW 6573   0.316   6.131   9.217 -0.0209 -0.1457 -0.4036
 1711SOL    HW1 6574   0.365   6.085   9.149  0.2039 -0.7759  0.1763
 1711SOL    HW2 6575   0.365   6.213   9.229  0.3379 -0.3401 -0.5107
 1712SOL     OW 6576   5.678   7.134   3.219  0.1880 -0.0373 -0.2926
 1712SOL    HW1 6577   5.761   7.086   3.210 -0.2888 -0.5119 -3.7033
 1712SOL    HW2 6578   5.612   7.065   3.228  0.0095  0.2672  0.7538
 1713SOL     OW 6579   6.089   6.950  10.141  0.3504 -0.3483  0.6003
 1713SOL    HW1 6580   6.031   6.889  10.186  0.0308 -0.3715  0.1573
 1713SOL    HW2 6581   6.160   6.965  10.203 -0.6211  0.4612  1.5646
 1714SOL     OW 6582   7.205   3.749   6.144 -0.2247  0.0332  0.0309
 1714SOL    HW1 6583   7.143   3.678   6.128 -0.2112  0.1299 -0.4805
 1714SOL    HW2 6584   7.231   3.777   6.056 -0.4494  0.8617  0.2220
 1715SOL     OW 6585   7.767   5.021   9.768 -0.5366 -0.0290 -0.1719
 1715SOL    HW1 6586   7.810   4.938   9.745 -1.0325 -0.3416 -0.0078
 1715SOL    HW2 6587   7.836   5.074   9.808 -0.9389 -1.7362  3.1139
 1716SOL     OW 6588   3.938   7.919   4.144 -0.3021  0.9275 -0.5564
 1716SOL    HW1 6589   3.878   7.856   4.183  0.0197  1.2338  0.4475
 1716SOL    HW2 6590   4.000   7.940   4.213  0.9341  0.6814 -1.5474
 1717SOL     OW 6591   2.316   3.460   0.599 -0.1289 -0.4479 -0.0315
 1717SOL    HW1 6592   2.390   3.515   0.623 -0.7168  1.0005 -1.3416
 1717SOL    HW2 6593   2.249   3.522   0.569 -1.7045 -1.7454  0.6752
 1718SOL     OW 6594   1.097   1.636   1.668  0.9067 -0.5862  0.8846
 1718SOL    HW1 6595   1.065   1.726   1.667 -2.1285 -1.5641  0.9624
 1718SOL    HW2 6596   1.129   1.621   1.579  1.8346  0.6516  0.9876
 1719SOL     OW 6597   0.335   4.595   7.178  0.5034 -0.4961 -0.3988
 1719SOL    HW1 6598   0.267   4.591   7.111 -1.1333 -0.1443  1.1961
 1719SOL    HW2 6599   0.323   4.516   7.230  0.9152 -0.1272  0.2684
 1720SOL     OW 6600   5.922   4.383   4.689  0.2608 -0.4121  0.0983
 1720SOL    HW1 6601   5.946   4.338   4.609 -0.1326  1.0346 -0.8772
 1720SOL    HW2 6602   5.943   4.475   4.672 -0.0895 -0.0358  1.5512
 1721SOL     OW 6603   7.881   7.368   6.174  1.0939 -0.1102 -0.3006
 1721SOL    HW1 6604   7.856   7.310   6.246  0.4860  1.1227  0.5244
 1721SOL    HW2 6605   7.938   7.434   6.215 -1.5820  2.3455 -0.2184
 1722SOL     OW 6606   3.192   2.550   7.910 -0.1221 -0.3701  0.6747
 1722SOL    HW1 6607   3.121   2.522   7.852  0.5959 -1.4907  0.2962
 1722SOL    HW2 6608   3.210   2.473   7.964  3.3496 -1.5847 -1.8376
 1723SOL     OW 6609   6.554   0.833  10.806 -0.2028  0.1756 -0.7545
 1723SOL    HW1 6610   6.545   0.926  10.827  1.3666  0.2023  0.0163
 1723SOL    HW2 6611   6.563   0.831  10.711  0.9392  0.9616 -0.6888
 1724SOL     OW 6612   6.198   7.401   4.260 -0.4219 -0.7412  0.2391
 1724SOL    HW1 6613   6.222   7.320   4.304 -0.3234 -1.3821 -0.9490
 1724SOL    HW2 6614   6.234   7.470   4.315  1.3335 -1.5783  0.1871
 1725SOL     OW 6615   7.774   7.589   4.156 -0.0122 -0.3864  0.4535
 1725SOL    HW1 6616   7.771   7.526   4.084 -0.6225  0.5561 -0.3811
 1725SOL    HW2 6617   7.805   7.539   4.231 -0.1993 -1.6057 -0.2576
 1726SOL     OW 6618   2.079   5.286   8.263  0.1679 -0.1866 -0.1760
 1726SOL    HW1 6619   2.074   5.217   8.330  1.1860  0.2677  0.3910
 1726SOL    HW2 6620   2.159   5.334   8.284  0.1928  0.3307 -1.3857
 1727SOL     OW 6621   1.971   0.781  12.120 -0.1196  0.5207 -0.2031
 1727SOL    HW1 6622   1.883   0.745  12.114  0.2314 -0.5677  0.7926
 1727SOL    HW2 6623   2.011   0.759  12.035 -0.5862  0.3983 -0.3942
 1728SOL     OW 6624   0.847   3.194   9.942  0.1084  0.6203 -0.2621
 1728SOL    HW1 6625   0.906   3.223  10.012  1.4165  0.8705 -1.4292
 1728SOL    HW2 6626   0.817   3.276   9.902  0.7683  0.4491 -1.1164
 1729SOL     OW 6627   7.142   5.376   0.031 -0.2360  0.2014  0.5957
 1729SOL    HW1 6628   7.059   5.329   0.038 -1.7072  2.6726  0.7517
 1729SOL    HW2 6629   7.123   5.450  -0.028  1.8892  0.7781  0.5587
 1730SOL     OW 6630   4.126   7.102   0.688  0.3933  0.2685 -1.0584
 1730SOL    HW1 6631   4.221   7.096   0.685  0.3942  0.0774 -0.5940
 1730SOL    HW2 6632   4.096   7.016   0.658  0.3822 -0.3059  0.5245
 1731SOL     OW 6633   7.901   4.181   4.209  0.3256 -1.1286  0.0947
 1731SOL    HW1 6634   7.932   4.174   4.299 -1.6611  2.0500  1.1621
 1731SOL    HW2 6635   7.951   4.253   4.172 -2.9389  1.7016  0.7386
 1732SOL     OW 6636   0.139   3.949   9.566  0.4752 -0.5803 -0.1650
 1732SOL    HW1 6637   0.204   3.953   9.496 -0.6108  0.1114 -1.1838
 1732SOL    HW2 6638   0.186   3.913   9.641  2.2329  0.6526 -0.6170
 1733SOL     OW 6639   7.753   5.884   4.839 -0.0611  0.7079 -0.3861
 1733SOL    HW1 6640   7.798   5.942   4.901  1.1150  0.1750 -0.7309
 1733SOL    HW2 6641   7.669   5.866   4.882  1.0014 -0.2352  1.4388
 1734SOL     OW 6642   4.600   7.031   0.522  0.0726  0.3903  0.0556
 1734SOL    HW1 6643   4.604   6.947   0.476 -0.4104  0.0514  0.6103
 1734SOL    HW2 6644   4.687   7.042   0.560  0.4105  0.5764 -0.7650
 1735SOL     OW 6645   6.437   4.762   9.228 -0.3100 -0.3603  0.4326
 1735SOL    HW1 6646   6.493   4.687   9.248 -1.6194 -1.1078  1.4559
 1735SOL    HW2 6647   6.408   4.793   9.314 -0.3128  0.9253 -0.0128
 1736SOL     OW 6648   5.660   7.712   2.589  0.0672  0.0156 -0.2044
 1736SOL    HW1 6649   5.615   7.652   2.528 -0.7670  0.7624 -0.3537
 1736SOL    HW2 6650   5.603   7.789   2.591  2.0300  1.5808 -1.4572
 1737SOL     OW 6651   7.048   4.775   4.063  0.2991  0.4389  0.0151
 1737SOL    HW1 6652   7.104   4.701   4.037 -0.6386 -1.1635  2.1953
 1737SOL    HW2 6653   7.098   4.853   4.039  1.6544 -0.8716 -1.7280
 1738SOL     OW 6654   2.572   3.412   7.269 -0.3240  0.1298 -0.1107
 1738SOL    HW1 6655   2.493   3.376   7.310 -0.1454  0.6792  0.7587
 1738SOL    HW2 6656   2.611   3.338   7.222  0.2472 -0.9555  1.9339
 1739SOL     OW 6657   7.724   3.228   3.230 -0.2304  0.1421  0.3046
 1739SOL    HW1 6658   7.703   3.218   3.323  0.2857 -2.8298  0.1776
 1739SOL    HW2 6659   7.819   3.238   3.227 -0.2463  0.2446  0.0910
 1740SOL     OW 6660   7.500   3.587   4.776  0.1036 -0.8949  0.5937
 1740SOL    HW1 6661   7.485   3.655   4.841 -0.2357  2.1136 -2.3121
 1740SOL    HW2 6662   7.592   3.562   4.788  0.7752  1.3865  0.7598
 1741SOL     OW 6663   2.985   4.927   2.716  0.1626 -0.2923  0.4212
 1741SOL    HW1 6664   3.005   4.892   2.803  0.3873 -0.1920  0.4103
 1741SOL    HW2 6665   2.948   4.853   2.668  0.6228 -0.5076  0.4028
 1742SOL     OW 6666   0.144   2.749   4.541  0.5113  0.0861  0.5534
 1742SOL    HW1 6667   0.113   2.788   4.623 -1.8862  0.0462 -0.2607
 1742SOL    HW2 6668   0.204   2.813   4.505 -0.0888  1.0970  1.2967
 1743SOL     OW 6669   2.864   5.447  11.146  0.3995 -0.4135 -0.1391
 1743SOL    HW1 6670   2.793   5.383  11.138  0.6262 -0.6043 -0.7023
 1743SOL    HW2 6671   2.917   5.414  11.218 -1.4893  1.1395  2.1113
 1744SOL     OW 6672   4.862   7.162  11.025 -0.3560  0.0463  0.4044
 1744SOL    HW1 6673   4.909   7.166  10.941 -1.0144  0.3786  0.0430
 1744SOL    HW2 6674   4.773   7.136  11.000 -0.0622 -1.8991  1.1942
 1745SOL     OW 6675   5.216   5.100  10.686  0.4542 -0.1187  0.3318
 1745SOL    HW1 6676   5.258   5.139  10.763  1.2794  1.8679 -1.0494
 1745SOL    HW2 6677   5.266   5.020  10.669  0.8894 -0.0529  1.2757
 1746SOL     OW 6678   1.816   2.032   9.697  0.1751  0.4749 -0.2120
 1746SOL    HW1 6679   1.881   1.985   9.748  1.1928  0.7590 -1.1983
 1746SOL    HW2 6680   1.785   1.968   9.633 -0.0128  0.5358 -0.1811
 1747SOL     OW 6681   6.972   6.205   1.620 -0.3747  0.0415  0.2242
 1747SOL    HW1 6682   6.914   6.185   1.693 -0.3630 -0.7833  0.0158
 1747SOL    HW2 6683   6.918   6.259   1.561 -0.2393  1.0934  1.0396
 1748SOL     OW 6684   2.799   6.254   4.824 -0.0886 -0.1915  0.1523
 1748SOL    HW1 6685   2.828   6.171   4.862 -1.2474 -1.2526 -1.2118
 1748SOL    HW2 6686   2.826   6.249   4.732 -3.6970 -0.8918 -1.0059
 1749SOL     OW 6687   7.035   2.437  10.029  0.0071  0.6363  0.3059
 1749SOL    HW1 6688   7.092   2.373  10.071  1.1751  0.1984 -1.7766
 1749SOL    HW2 6689   7.094   2.491   9.977 -1.3256  1.2067 -0.6796
 1750SOL     OW 6690   5.189   5.823   8.349  0.1817 -0.7360  0.1865
 1750SOL    HW1 6691   5.262   5.771   8.317 -0.5393 -2.3170  0.9963
 1750SOL    HW2 6692   5.112   5.782   8.310 -0.4325 -0.5661  1.1987
 1751SOL     OW 6693   2.916   7.022  10.363 -0.0786  0.0865 -0.6564
 1751SOL    HW1 6694   2.936   7.094  10.304  2.1737 -0.6769 -0.9155
 1751SOL    HW2 6695   2.825   7.000  10.344 -0.3517  1.8396 -1.6287
 1752SOL     OW 6696   1.861   3.418   0.488 -0.0190  0.0662  0.0448
 1752SOL    HW1 6697   1.803   3.438   0.415 -1.0402  1.5152  1.2154
 1752SOL    HW2 6698   1.898   3.332   0.466 -3.3043 -1.4068 -0.3022
 1753SOL     OW 6699   5.512   0.256   2.390  0.4735 -0.0639 -0.3740
 1753SOL    HW1 6700   5.420   0.230   2.390  0.2294  0.4776  2.6788
 1753SOL    HW2 6701   5.559   0.178   2.357 -0.9003 -1.1933  0.2491
 1754SOL     OW 6702   3.039   1.076   3.165  0.1810 -0.7579  0.0531
 1754SOL    HW1 6703   3.024   1.057   3.073 -1.1561  0.5802 -0.0355
 1754SOL    HW2 6704   3.025   0.992   3.209 -1.2818 -0.9673 -0.7513
 1755SOL     OW 6705   7.153   5.847   3.265 -0.0873  0.2300 -0.6239
 1755SOL    HW1 6706   7.150   5.893   3.349  2.1356  3.3727 -2.0842
 1755SOL    HW2 6707   7.243   5.817   3.258 -0.0069  0.7899 -2.2395
 1756SOL     OW 6708   3.527   5.342  11.799 -0.8982 -0.0227  0.2976
 1756SOL    HW1 6709   3.605   5.391  11.826 -1.3702  0.8723  0.0552
 1756SOL    HW2 6710   3.461   5.409  11.783 -2.4979 -0.8325  2.8487
 1757SOL     OW 6711   0.298   7.862   6.459  0.5173  0.1669 -0.7084
 1757SOL    HW1 6712   0.234   7.809   6.507  2.8115 -0.8652  1.4791
 1757SOL    HW2 6713   0.283   7.841   6.367 -2.3025  0.0847 -0.3072
 1758SOL     OW 6714   1.753   3.679   9.613  0.0217  0.4451  0.1197
 1758SOL    HW1 6715   1.707   3.733   9.549 -0.1880 -0.9375 -0.9286
 1758SOL    HW2 6716   1.833   3.728   9.632 -0.6384  1.6120 -0.0169
 1759SOL     OW 6717   5.460   3.270   7.981  0.5393 -0.0066 -0.8690
 1759SOL    HW1 6718   5.387   3.323   7.949  0.4356  0.2231 -0.2716
 1759SOL    HW2 6719   5.509   3.329   8.038  1.7587  0.1316 -2.0329
 1760SOL     OW 6720   2.001   5.915   7.709 -0.2399 -0.3630  0.0496
 1760SOL    HW1 6721   1.946   5.969   7.766 -0.8037 -2.4877  1.6671
 1760SOL    HW2 6722   2.069   5.880   7.768  1.1573 -0.0387 -1.3167
 1761SOL     OW 6723   6.823   4.223   9.296 -0.4360 -0.3127 -0.2354
 1761SOL    HW1 6724   6.894   4.284   9.277 -2.1217  1.3727 -1.4831
 1761SOL    HW2 6725   6.851   4.140   9.257  0.7206  0.3763 -0.9093
 1762SOL     OW 6726   2.747   2.832   5.587 -0.2543 -0.1456  0.1342
 1762SOL    HW1 6727   2.782   2.881   5.513  0.6726  0.5133  0.9692
 1762SOL    HW2 6728   2.689   2.893   5.632 -1.3533 -0.7584 -0.3970
 1763SOL     OW 6729   4.123   7.651   6.108  0.2190 -0.2102  0.6090
 1763SOL    HW1 6730   4.192   7.586   6.096  0.1384 -0.0092 -1.4414
 1763SOL    HW2 6731   4.167   7.735   6.099  0.1545  0.0209  2.2295
 1764SOL     OW 6732   3.890   0.203   4.812 -0.2961  0.2626 -0.1909
 1764SOL    HW1 6733   3.937   0.128   4.849  0.1593  1.2650  1.3832
 1764SOL    HW2 6734   3.801   0.193   4.845 -0.6370 -0.4168 -1.2906
 1765SOL     OW 6735   0.576   7.377   0.524  0.1197 -0.3375  0.6187
 1765SOL    HW1 6736   0.617   7.464   0.529 -0.2473 -0.1994  1.3728
 1765SOL    HW2 6737   0.508   7.387   0.458 -0.0134 -0.0072  0.8019
 1766SOL     OW 6738   7.752   0.438   5.272  0.0173 -0.3993  0.1054
 1766SOL    HW1 6739   7.686   0.423   5.204 -0.8912  0.1786  0.8374
 1766SOL    HW2 6740   7.703   0.475   5.346  1.4274  2.0059 -0.0405
 1767SOL     OW 6741   6.075   0.881   7.044 -0.0326  0.5461 -0.3084
 1767SOL    HW1 6742   6.156   0.893   7.095 -1.2693 -0.2189  1.9823
 1767SOL    HW2 6743   6.017   0.832   7.102 -1.7550  0.0397 -2.3324
 1768SOL     OW 6744   1.547   2.058   5.909 -0.3967  0.1833 -0.4280
 1768SOL    HW1 6745   1.558   2.152   5.924  0.8784  0.0494 -0.4322
 1768SOL    HW2 6746   1.482   2.031   5.974 -1.4685  1.2139 -1.0078
 1769SOL     OW 6747   5.731   6.092   8.636 -0.3001  0.1112  0.0352
 1769SOL    HW1 6748   5.755   6.002   8.612  0.9178  0.6409 -0.8430
 1769SOL    HW2 6749   5.801   6.119   8.695 -0.2799  0.7171 -0.2663
 1770SOL     OW 6750   4.992   6.298   1.524  0.9898 -0.8122  0.3784
 1770SOL    HW1 6751   4.913   6.298   1.577 -0.4478 -0.9337 -1.6472
 1770SOL    HW2 6752   5.021   6.207   1.522  0.9461 -0.8352  0.7733
 1771SOL     OW 6753   3.113   4.698   2.483  0.0671  0.7177 -0.4494
 1771SOL    HW1 6754   3.090   4.620   2.432 -0.0569  1.1577 -1.0779
 1771SOL    HW2 6755   3.154   4.663   2.562  0.4304  0.0252 -0.9296
 1772SOL     OW 6756   2.412   0.902   4.831  0.2424  0.1523  0.2597
 1772SOL    HW1 6757   2.401   0.916   4.925 -1.0228 -1.8988  0.4882
 1772SOL    HW2 6758   2.336   0.947   4.792  1.0072  1.3850  0.1426
 1773SOL     OW 6759   0.336   4.245   2.984  0.1327 -0.5910 -0.3682
 1773SOL    HW1 6760   0.271   4.309   2.953  2.2292  1.5366 -0.6756
 1773SOL    HW2 6761   0.290   4.194   3.050 -1.9964  0.4268 -0.9696
 1774SOL     OW 6762   0.420   1.904   1.642  0.0048 -0.6302  0.3513
 1774SOL    HW1 6763   0.489   1.893   1.706  0.2143 -0.7960  0.0964
 1774SOL    HW2 6764   0.339   1.901   1.693  0.1926 -0.1220  0.6925
 1775SOL     OW 6765   5.304   7.655   2.874 -0.5712  0.3222  0.4018
 1775SOL    HW1 6766   5.314   7.731   2.816 -0.1702 -1.1418 -1.5767
 1775SOL    HW2 6767   5.247   7.685   2.944 -1.8166  1.9852 -1.2277
 1776SOL     OW 6768   6.139   3.742  10.806  0.4179 -0.0820 -0.3612
 1776SOL    HW1 6769   6.133   3.668  10.866  2.1433  0.3057  0.3288
 1776SOL    HW2 6770   6.199   3.713  10.737 -0.8071 -0.1803 -1.4329
 1777SOL     OW 6771   1.148   5.816   0.321 -0.1401  0.1352  0.2262
 1777SOL    HW1 6772   1.142   5.901   0.364  0.7777 -0.2903  1.2398
 1777SOL    HW2 6773   1.179   5.756   0.389 -1.1882 -1.1138 -0.3472
 1778SOL     OW 6774   2.338   2.628   0.206 -0.3289  0.5880  0.2618
 1778SOL    HW1 6775   2.255   2.669   0.181 -0.2806  0.4414 -0.1396
 1778SOL    HW2 6776   2.404   2.695   0.190 -0.0806 -0.0519 -1.6596
 1779SOL     OW 6777   4.869   1.666   5.066  0.2609 -0.5387 -0.1629
 1779SOL    HW1 6778   4.870   1.712   5.151 -0.5332  0.4741 -0.6709
 1779SOL    HW2 6779   4.846   1.734   5.003 -1.1102 -1.6728 -0.9400
 1780SOL     OW 6780   3.882   4.564  10.461 -0.0211  0.4598 -0.3114
 1780SOL    HW1 6781   3.796   4.524  10.449  0.4670 -0.7492  0.0527
 1780SOL    HW2 6782   3.893   4.622  10.386 -1.3787  1.0521 -0.0693
 1781SOL     OW 6783   2.620   2.248   1.445 -0.3107 -0.0970  0.2425
 1781SOL    HW1 6784   2.655   2.199   1.519 -1.3688  0.4561  1.1191
 1781SOL    HW2 6785   2.599   2.334   1.480  1.4559  1.0199 -1.2561
 1782SOL     OW 6786   4.890   4.863   3.643  0.4043 -0.1930 -1.0217
 1782SOL    HW1 6787   4.809   4.815   3.629  0.0805  0.3927 -1.1570
 1782SOL    HW2 6788   4.895   4.925   3.570 -0.5996  1.9391  0.6050
 1783SOL     OW 6789   3.248   3.835   7.537 -0.5279  0.0929  0.2189
 1783SOL    HW1 6790   3.280   3.819   7.626 -3.3744 -1.1301  1.1425
 1783SOL    HW2 6791   3.238   3.930   7.531  0.1280  0.2237  1.0180
 1784SOL     OW 6792   4.694   6.051   5.880  0.3139  0.1189 -0.4610
 1784SOL    HW1 6793   4.780   6.073   5.845  0.4471 -0.8071 -0.7503
 1784SOL    HW2 6794   4.633   6.088   5.816  0.4583  1.4178  0.1217
 1785SOL     OW 6795   1.798   7.710   1.029  0.1795 -0.5263  0.4505
 1785SOL    HW1 6796   1.854   7.787   1.038 -1.2533  0.8245 -1.3199
 1785SOL    HW2 6797   1.766   7.693   1.117  1.2739  0.2877  1.0318
 1786SOL     OW 6798   6.180   6.181   9.088  0.0411  0.7689 -0.2449
 1786SOL    HW1 6799   6.272   6.199   9.105  0.4728 -1.8132  0.6596
 1786SOL    HW2 6800   6.159   6.231   9.009  1.6886  2.7703  0.5096
 1787SOL     OW 6801   6.531   7.655   7.650  0.0146 -0.3182 -0.3668
 1787SOL    HW1 6802   6.615   7.677   7.690 -0.6171 -1.8223  1.9944
 1787SOL    HW2 6803   6.537   7.562   7.629 -1.0602 -0.4568 -0.1440
 1788SOL     OW 6804   1.427   3.343   9.871 -0.1176 -0.1931 -0.4989
 1788SOL    HW1 6805   1.401   3.298   9.790 -0.2786 -1.5097  0.2402
 1788SOL    HW2 6806   1.411   3.278   9.940  1.9350  0.1673  0.3758
 1789SOL     OW 6807   4.022   3.111   3.173 -0.2086  0.1774  0.1603
 1789SOL    HW1 6808   3.974   3.193   3.167  0.4391  0.4576 -1.8718
 1789SOL    HW2 6809   4.068   3.104   3.089  1.3772 -1.2541  1.0974
 1790SOL     OW 6810   4.349   1.430   9.520 -0.2125 -0.3742  0.3716
 1790SOL    HW1 6811   4.367   1.503   9.580 -0.0207  0.0133 -0.1528
 1790SOL    HW2 6812   4.263   1.398   9.547  0.9063 -1.8679  2.5450
 1791SOL     OW 6813   1.177   1.375   3.007 -0.9784 -0.0315  0.1045
 1791SOL    HW1 6814   1.185   1.442   3.075 -1.1012 -0.9441  1.0424
 1791SOL    HW2 6815   1.262   1.373   2.965 -0.2419 -0.8330  1.5699
 1792SOL     OW 6816   0.707   2.569   1.660  0.6458 -0.6342 -0.3978
 1792SOL    HW1 6817   0.742   2.506   1.597  0.4756  0.0418 -1.1836
 1792SOL    HW2 6818   0.754   2.550   1.741  2.0959 -0.4415 -1.1586
 1793SOL     OW 6819   1.104   7.312   4.680 -0.7243 -0.4797  1.2335
 1793SOL    HW1 6820   1.109   7.227   4.635  1.8857  0.3152 -0.1615
 1793SOL    HW2 6821   1.025   7.353   4.646 -0.2166 -1.0132 -0.6734
 1794SOL     OW 6822   7.224   5.811   0.086 -0.0839  0.1332 -0.1707
 1794SOL    HW1 6823   7.171   5.802   0.165 -0.2174 -0.1354 -0.2890
 1794SOL    HW2 6824   7.278   5.889   0.102  0.5039 -0.3990  0.5467
 1795SOL     OW 6825   5.632   7.485   1.744 -0.9439  1.0399 -0.0942
 1795SOL    HW1 6826   5.661   7.539   1.671  0.3206  1.0060  0.3716
 1795SOL    HW2 6827   5.545   7.454   1.718 -0.1050  0.1780 -2.0351
 1796SOL     OW 6828   0.498   6.311   3.949  0.4538 -0.2587  0.0014
 1796SOL    HW1 6829   0.517   6.224   3.983  2.0044 -0.5005 -1.3523
 1796SOL    HW2 6830   0.541   6.314   3.863 -0.0815  1.6200 -0.2618
 1797SOL     OW 6831   1.111   0.399   7.481 -0.8359  0.3292 -0.2371
 1797SOL    HW1 6832   1.108   0.420   7.388 -0.3810 -0.4911 -0.4549
 1797SOL    HW2 6833   1.022   0.412   7.513 -0.8627  1.1828 -0.6539
 1798SOL     OW 6834   6.466   5.302   8.973  0.1644  0.1198 -0.2500
 1798SOL    HW1 6835   6.374   5.288   8.952 -0.0906 -0.1273  0.9607
 1798SOL    HW2 6836   6.465   5.344   9.059  1.1991 -0.2028 -0.0667
 1799SOL     OW 6837   2.422   5.051   1.938  0.4063 -0.3026 -0.0785
 1799SOL    HW1 6838   2.509   5.066   1.901  0.4317  0.6824  0.3556
 1799SOL    HW2 6839   2.439   5.030   2.030  0.0972  3.1169  0.9166
 1800SOL     OW 6840   2.126   1.090   7.307 -0.2939  0.4759 -0.2953
 1800SOL    HW1 6841   2.031   1.085   7.319 -0.3426  1.0718 -0.4232
 1800SOL    HW2 6842   2.161   1.029   7.372 -0.8086 -0.6642 -1.0585
 1801SOL     OW 6843   3.679   2.210   7.720  0.5184 -0.2883 -0.1400
 1801SOL    HW1 6844   3.599   2.247   7.757  1.1261  1.9034 -0.8921
 1801SOL    HW2 6845   3.716   2.158   7.792  0.2017  1.5276  1.4343
 1802SOL     OW 6846   3.724   3.606   7.036 -0.1334  0.1877  0.2673
 1802SOL    HW1 6847   3.700   3.614   7.128  0.5331 -0.9830  0.5712
 1802SOL    HW2 6848   3.649   3.641   6.988 -0.4102  0.9910  1.2482
 1803SOL     OW 6849   5.732   1.212   2.673 -0.6581  0.3499  0.1252
 1803SOL    HW1 6850   5.785   1.252   2.605 -0.5035  0.3251  0.2293
 1803SOL    HW2 6851   5.678   1.283   2.707 -0.3814  0.4731  0.3121
 1804SOL     OW 6852   0.636   5.579   3.621 -0.1937 -0.1942  0.5385
 1804SOL    HW1 6853   0.586   5.589   3.540  0.2172 -0.8660  0.1913
 1804SOL    HW2 6854   0.664   5.487   3.620 -0.2287 -0.2239  1.4692
 1805SOL     OW 6855   3.729   1.403   9.115 -0.2493 -0.1980  0.3391
 1805SOL    HW1 6856   3.803   1.409   9.176 -1.9031 -0.6733  2.5361
 1805SOL    HW2 6857   3.760   1.346   9.045  1.2587 -0.9451  1.5447
 1806SOL     OW 6858   2.830   7.929   2.716 -0.3086  0.0787  0.0818
 1806SOL    HW1 6859   2.816   7.993   2.786 -0.3468 -0.9492  1.0444
 1806SOL    HW2 6860   2.742   7.905   2.687 -0.3672 -0.8618  0.9813
 1807SOL     OW 6861   0.154   0.387   3.454  0.4833 -0.0858 -0.0851
 1807SOL    HW1 6862   0.158   0.336   3.534  2.3458  2.4040  1.5395
 1807SOL    HW2 6863   0.229   0.358   3.403  2.4925  1.9391  1.5405
 1808SOL     OW 6864   7.160   7.201   1.175  0.0565  0.2552 -0.2460
 1808SOL    HW1 6865   7.126   7.282   1.136  0.2519  0.5832  0.2596
 1808SOL    HW2 6866   7.149   7.135   1.106 -1.8308  0.2911 -0.0162
 1809SOL     OW 6867   7.671   2.539   6.052 -0.0910 -0.0001 -0.3813
 1809SOL    HW1 6868   7.724   2.594   6.110  0.5866 -1.0147 -0.0211
 1809SOL    HW2 6869   7.686   2.575   5.965  1.7055 -0.6241 -0.3809
 1810SOL     OW 6870   4.097   5.729   1.840  0.4313  0.8023 -0.7702
 1810SOL    HW1 6871   4.037   5.656   1.828  1.1732  0.1821 -0.8067
 1810SOL    HW2 6872   4.182   5.688   1.857  0.5522  1.6439  0.9059
 1811SOL     OW 6873   5.756   5.881   0.883  0.3447  0.6649 -0.2387
 1811SOL    HW1 6874   5.799   5.960   0.851 -1.1984  0.6857 -2.5415
 1811SOL    HW2 6875   5.663   5.896   0.864  0.0165 -1.6550 -0.6958
 1812SOL     OW 6876   0.723   7.414  10.052 -0.4071 -0.4373 -0.3728
 1812SOL    HW1 6877   0.787   7.483  10.034  0.2248 -1.3820 -2.0082
 1812SOL    HW2 6878   0.690   7.434  10.140  1.2591  0.7569  0.0366
 1813SOL     OW 6879   1.369   3.401  11.691 -0.1186 -0.0478  0.0921
 1813SOL    HW1 6880   1.325   3.478  11.728 -1.5809  0.1401 -1.9021
 1813SOL    HW2 6881   1.395   3.428  11.603 -0.9718 -1.8828 -0.7819
 1814SOL     OW 6882   5.227   1.840  10.583  0.2665 -0.5404 -0.3554
 1814SOL    HW1 6883   5.317   1.867  10.564  0.3302 -1.1293 -0.9480
 1814SOL    HW2 6884   5.225   1.748  10.557 -0.4799 -0.5540 -0.2427
 1815SOL     OW 6885   1.364   7.856   4.567 -0.0452 -0.0884  0.1058
 1815SOL    HW1 6886   1.336   7.769   4.537 -0.3761 -0.1367  0.5355
 1815SOL    HW2 6887   1.291   7.913   4.546 -0.1544 -0.0664  0.5273
 1816SOL     OW 6888   4.536   0.209   1.346  0.3753 -0.1749  0.1467
 1816SOL    HW1 6889   4.563   0.182   1.433 -0.9031  0.7526  0.8586
 1816SOL    HW2 6890   4.449   0.171   1.334  0.7665 -0.7823 -0.9741
 1817SOL     OW 6891   0.213   4.969  12.259 -0.5827 -0.4057 -0.3864
 1817SOL    HW1 6892   0.118   4.975  12.273 -0.6051 -1.2131 -0.0998
 1817SOL    HW2 6893   0.226   4.881  12.223  0.2221 -0.9853  1.2023
 1818SOL     OW 6894   5.576   3.919   7.527 -0.3921 -0.0735 -0.2890
 1818SOL    HW1 6895   5.516   3.892   7.596 -0.4638 -1.7341 -0.9634
 1818SOL    HW2 6896   5.630   3.842   7.510  1.1640  1.0236 -0.5148
 1819SOL     OW 6897   3.879   2.818  11.518 -0.3823 -0.0737 -0.9368
 1819SOL    HW1 6898   3.805   2.770  11.555 -0.9814 -0.2255 -2.2617
 1819SOL    HW2 6899   3.924   2.753  11.463  0.0678  0.3120 -1.0278
 1820SOL     OW 6900   6.858   4.721   6.473  0.0727  0.7695 -0.0424
 1820SOL    HW1 6901   6.824   4.718   6.563  0.0448 -1.6214 -0.0606
 1820SOL    HW2 6902   6.953   4.731   6.484 -0.0406  1.7116  0.1877
 1821SOL     OW 6903   6.223   1.763   0.786  1.2639  0.1077 -0.2130
 1821SOL    HW1 6904   6.289   1.717   0.837  1.0503  0.7684  0.6904
 1821SOL    HW2 6905   6.235   1.732   0.697  0.5080 -2.3997  0.4919
 1822SOL     OW 6906   0.685   5.781   7.883  0.1832 -0.2639 -0.3092
 1822SOL    HW1 6907   0.647   5.728   7.953  0.2494 -0.1456 -0.1831
 1822SOL    HW2 6908   0.774   5.799   7.911 -0.0632  0.5279  0.0008
 1823SOL     OW 6909   1.200   2.360   8.822 -0.1628 -0.1805 -0.4398
 1823SOL    HW1 6910   1.210   2.455   8.818  0.2530 -0.2476 -1.5054
 1823SOL    HW2 6911   1.282   2.328   8.861 -0.6368 -0.0574  0.6753
 1824SOL     OW 6912   7.494   5.294   4.880  0.3305  0.5949  0.0769
 1824SOL    HW1 6913   7.496   5.275   4.786  1.6173  0.7311  0.0590
 1824SOL    HW2 6914   7.401   5.296   4.902  0.0415 -1.2168 -0.8296
 1825SOL     OW 6915   6.987   0.099  10.780 -0.2887 -0.3412  0.5364
 1825SOL    HW1 6916   7.001   0.184  10.821 -0.8518  0.1554 -0.2636
 1825SOL    HW2 6917   6.892   0.092  10.771 -0.1514  0.1156 -1.7442
 1826SOL     OW 6918   5.034   5.514   4.081  0.2788 -0.4063 -0.0618
 1826SOL    HW1 6919   5.127   5.536   4.078  0.2910 -0.5396 -1.4152
 1826SOL    HW2 6920   5.024   5.447   4.013 -1.0905  0.7894 -1.0865
 1827SOL     OW 6921   3.301   5.878   5.459  0.7639  0.2458 -0.0686
 1827SOL    HW1 6922   3.351   5.833   5.527  1.1422  1.0151  0.1701
 1827SOL    HW2 6923   3.257   5.949   5.505 -2.0843 -1.4877  0.1107
 1828SOL     OW 6924   2.612   4.781   9.095  0.3272  0.5269  0.1286
 1828SOL    HW1 6925   2.593   4.727   9.172  0.0693  1.4787  0.7551
 1828SOL    HW2 6926   2.708   4.780   9.089  0.2932 -1.3465 -0.8903
 1829SOL     OW 6927   4.588   3.264   6.826 -0.0774  0.0021  0.0171
 1829SOL    HW1 6928   4.610   3.304   6.742 -1.1035 -1.3817 -0.9574
 1829SOL    HW2 6929   4.558   3.337   6.881  1.3710  1.0425 -0.5151
 1830SOL     OW 6930   4.128   0.026   2.064  0.0911  0.1734 -0.0626
 1830SOL    HW1 6931   4.084   0.096   2.016 -1.6645 -0.6233  0.3034
 1830SOL    HW2 6932   4.160  -0.033   1.996 -0.3766  0.2218 -0.3297
 1831SOL     OW 6933   6.096   6.430   8.407 -0.2624 -0.2244 -1.0650
 1831SOL    HW1 6934   6.117   6.352   8.459  1.9034 -0.0457 -1.5586
 1831SOL    HW2 6935   6.058   6.395   8.326 -2.7241 -0.5409  0.1405
 1832SOL     OW 6936   0.297   2.578  11.593 -0.3196 -0.2940 -0.2228
 1832SOL    HW1 6937   0.205   2.556  11.611 -0.0967  0.7744  2.6357
 1832SOL    HW2 6938   0.295   2.672  11.573  0.0433 -0.5433 -1.5596
 1833SOL     OW 6939   5.254   0.857   5.257  0.2639 -0.2340  0.0089
 1833SOL    HW1 6940   5.299   0.918   5.198 -1.9386  1.4349 -0.1049
 1833SOL    HW2 6941   5.276   0.770   5.224  3.1031  0.4510 -0.1675
 1834SOL     OW 6942   6.505   6.364   5.896 -0.3504  0.3645 -0.0589
 1834SOL    HW1 6943   6.502   6.458   5.880  0.7347  0.5572  0.7480
 1834SOL    HW2 6944   6.598   6.341   5.893 -0.5702 -0.6104  0.1109
 1835SOL     OW 6945   1.292   7.026   1.299  0.5036  0.3395 -0.1779
 1835SOL    HW1 6946   1.335   6.953   1.255  0.0437  0.3520 -0.6588
 1835SOL    HW2 6947   1.199   7.013   1.281  0.0365 -0.9209  2.6641
 1836SOL     OW 6948   0.952   4.727   4.758  0.1811  0.4323  0.4449
 1836SOL    HW1 6949   0.952   4.633   4.738 -0.6432  0.1553  1.6182
 1836SOL    HW2 6950   1.044   4.753   4.749  0.2597 -0.2304 -0.9466
 1837SOL     OW 6951   5.855   7.383  11.809  0.6495 -0.5124  0.2244
 1837SOL    HW1 6952   5.797   7.360  11.736 -0.5342 -0.1201  1.0156
 1837SOL    HW2 6953   5.933   7.330  11.795  0.5036 -0.3419 -1.4039
 1838SOL     OW 6954   1.034   3.548   7.822 -0.1555 -0.6723 -0.4993
 1838SOL    HW1 6955   1.076   3.619   7.774 -0.7664 -1.4833 -2.3352
 1838SOL    HW2 6956   0.945   3.579   7.840  0.2529 -0.1417  0.6614
 1839SOL     OW 6957   3.705   6.363  12.408  0.1802  0.5065  0.2655
 1839SOL    HW1 6958   3.642   6.415  12.459 -2.1715 -0.5157 -1.4113
 1839SOL    HW2 6959   3.708   6.279  12.452  3.9496  1.7947  2.9477
 1840SOL     OW 6960   7.132   6.699   8.928 -0.2174  0.0978  0.3415
 1840SOL    HW1 6961   7.051   6.687   8.978  0.5602  1.5073  2.0833
 1840SOL    HW2 6962   7.131   6.791   8.903  1.1538  0.3384  1.0546
 1841SOL     OW 6963   4.815   4.247   1.744 -0.3576 -0.0084  0.1490
 1841SOL    HW1 6964   4.777   4.335   1.736 -0.7563 -0.3190 -1.7204
 1841SOL    HW2 6965   4.909   4.262   1.749 -0.4719  0.5587  0.6885
 1842SOL     OW 6966   1.526   2.538   8.723  0.5564 -0.0507 -0.2388
 1842SOL    HW1 6967   1.509   2.568   8.633 -0.9215 -1.2335 -0.4014
 1842SOL    HW2 6968   1.618   2.514   8.723  0.5093 -0.3095 -1.5507
 1843SOL     OW 6969   4.559   0.960  11.042 -0.5447 -0.5275 -0.2853
 1843SOL    HW1 6970   4.571   1.055  11.038 -1.3951 -0.4034  0.0212
 1843SOL    HW2 6971   4.559   0.940  11.136  2.0868 -1.1767 -0.3248
 1844SOL     OW 6972   0.171   4.354   4.166  0.3734  0.0602  0.1430
 1844SOL    HW1 6973   0.169   4.305   4.248  1.3577  1.3869  1.0030
 1844SOL    HW2 6974   0.251   4.406   4.171 -0.1907  1.1019 -1.1032
 1845SOL     OW 6975   4.471   6.587   0.713 -0.2291  0.0377 -0.4338
 1845SOL    HW1 6976   4.421   6.595   0.794 -1.0111  1.5488 -1.0272
 1845SOL    HW2 6977   4.545   6.531   0.737  0.5720  1.8744  1.8465
 1846SOL     OW 6978   5.299   3.659   9.791  0.5668 -0.0645 -0.0497
 1846SOL    HW1 6979   5.348   3.728   9.836  2.0147 -0.9746 -0.1445
 1846SOL    HW2 6980   5.363   3.588   9.779 -0.6710 -1.1350 -0.6084
 1847SOL     OW 6981   0.312   0.914   0.060 -0.1723  0.6062  0.0486
 1847SOL    HW1 6982   0.357   0.949   0.137 -1.2132  1.2627  0.3840
 1847SOL    HW2 6983   0.264   0.988   0.024  0.7313  0.4493 -1.5889
 1848SOL     OW 6984   2.349   4.514   6.637 -0.1277  0.8255  0.3986
 1848SOL    HW1 6985   2.303   4.442   6.594 -0.2148  1.2727 -0.2869
 1848SOL    HW2 6986   2.354   4.489   6.729 -0.5372  0.1461  0.2413
 1849SOL     OW 6987   3.741   6.416   0.917  0.0667  0.4600 -0.1153
 1849SOL    HW1 6988   3.804   6.488   0.916  0.5322  0.1594  2.3211
 1849SOL    HW2 6989   3.698   6.422   1.002 -0.1310 -1.9040  0.0286
 1850SOL     OW 6990   1.878   3.570   6.588 -0.3382  0.0739  0.0216
 1850SOL    HW1 6991   1.913   3.646   6.541  0.9566  0.3948  1.4399
 1850SOL    HW2 6992   1.920   3.572   6.673  0.0652 -2.4753 -0.0173
 1851SOL     OW 6993   1.090   3.145   2.303  0.5757  0.2651 -0.0429
 1851SOL    HW1 6994   1.058   3.079   2.241 -1.2181 -0.0741  1.1545
 1851SOL    HW2 6995   1.137   3.094   2.370 -1.8766 -0.0595  1.5584
 1852SOL     OW 6996   6.053   5.092  11.720 -0.5590 -0.3637  0.3201
 1852SOL    HW1 6997   6.019   5.166  11.770 -1.1375 -1.1261  1.0774
 1852SOL    HW2 6998   5.997   5.089  11.642  0.3219  0.8011 -0.3937
 1853SOL     OW 6999   4.600   4.358   9.898 -0.3857 -0.3646  0.0489
 1853SOL    HW1 7000   4.676   4.328   9.947  0.4207  2.3963  0.6351
 1853SOL    HW2 7001   4.536   4.287   9.907  0.9444 -1.3675  2.3000
 1854SOL     OW 7002   2.596   4.812  11.005 -0.3681 -0.2536  0.4619
 1854SOL    HW1 7003   2.515   4.790  10.960 -1.7394  1.7050  1.8109
 1854SOL    HW2 7004   2.597   4.757  11.083  0.5311 -1.5251 -0.4042
 1855SOL     OW 7005   1.222   7.255  10.999  0.1010 -0.6390 -0.0177
 1855SOL    HW1 7006   1.283   7.186  11.022 -0.4419 -0.4948  2.1826
 1855SOL    HW2 7007   1.150   7.245  11.062 -0.1601  1.6834  0.1695
 1856SOL     OW 7008   3.757   3.429  10.349  0.3670 -0.1544  0.2419
 1856SOL    HW1 7009   3.820   3.500  10.361 -0.0671  0.2726  0.0294
 1856SOL    HW2 7010   3.677   3.460  10.390  0.4168 -0.8885  0.9287
 1857SOL     OW 7011   3.761   6.427   0.313 -0.0314 -0.4705  0.0060
 1857SOL    HW1 7012   3.786   6.510   0.273 -3.9710  1.5256  1.1171
 1857SOL    HW2 7013   3.782   6.437   0.405 -0.3084 -0.7774  0.1065
 1858SOL     OW 7014   1.467   7.661   9.236  0.0104 -0.0512  0.0945
 1858SOL    HW1 7015   1.452   7.752   9.262  1.4858 -0.1225  1.3058
 1858SOL    HW2 7016   1.526   7.666   9.161 -2.8996  0.0765 -2.3972
 1859SOL     OW 7017   2.616   6.098   8.376 -0.3528 -0.3820 -0.5102
 1859SOL    HW1 7018   2.683   6.153   8.337  0.0416 -1.0643 -0.8187
 1859SOL    HW2 7019   2.614   6.019   8.321 -0.9319 -0.6580 -0.1108
 1860SOL     OW 7020   1.168   2.763   3.662 -1.0931  0.0954  0.0458
 1860SOL    HW1 7021   1.187   2.854   3.638  3.2005 -0.8895 -1.0943
 1860SOL    HW2 7022   1.119   2.729   3.587 -0.5591  0.8480 -0.6679
 1861SOL     OW 7023   1.563   6.357   0.593  0.4460  0.1266  0.3387
 1861SOL    HW1 7024   1.571   6.446   0.626 -0.0073  0.1044  0.5070
 1861SOL    HW2 7025   1.654   6.325   0.590  0.6176  0.6193  0.1911
 1862SOL     OW 7026   3.822   1.349   9.482 -0.3470  0.0703  0.1195
 1862SOL    HW1 7027   3.879   1.375   9.553 -1.9293 -0.0165  1.4858
 1862SOL    HW2 7028   3.841   1.256   9.468  0.5613  0.2939 -0.1601
 1863SOL     OW 7029   7.338   5.033   5.010  0.1558  0.0237  0.1027
 1863SOL    HW1 7030   7.390   5.090   5.067 -0.6760 -0.1988  1.1122
 1863SOL    HW2 7031   7.310   5.090   4.938  1.2130  0.3086 -0.1050
 1864SOL     OW 7032   7.578   3.607   8.403  1.0775  0.2752 -0.4242
 1864SOL    HW1 7033   7.511   3.675   8.401 -0.9154 -1.5512  0.4795
 1864SOL    HW2 7034   7.603   3.601   8.496 -0.1501 -1.4197 -0.1517
 1865SOL     OW 7035   4.732   1.691   9.282 -0.0616 -0.3037  0.3803
 1865SOL    HW1 7036   4.644   1.674   9.314  0.0728 -0.3079  0.7516
 1865SOL    HW2 7037   4.776   1.735   9.355  0.2926 -0.4454  0.2552
 1866SOL     OW 7038   1.277   6.152   6.994  0.0587  0.0593  0.3988
 1866SOL    HW1 7039   1.373   6.153   6.993  0.1542  1.5446  2.7543
 1866SOL    HW2 7040   1.253   6.060   7.005  1.1391 -0.4601 -1.2665
 1867SOL     OW 7041   0.046   0.819   9.626 -0.4479 -0.0344 -0.4612
 1867SOL    HW1 7042   0.098   0.799   9.548 -0.2324 -0.0154 -0.3230
 1867SOL    HW2 7043  -0.010   0.892   9.598  1.7960  2.0962  0.2740
 1868SOL     OW 7044   0.952   1.296  12.192 -0.1308 -0.0533 -0.6017
 1868SOL    HW1 7045   0.989   1.375  12.230 -0.5820 -0.9311  1.8299
 1868SOL    HW2 7046   1.027   1.250  12.154  0.8919 -0.4798  1.7900
 1869SOL     OW 7047   0.915   6.094   4.284 -0.1987  0.2807 -0.4712
 1869SOL    HW1 7048   0.953   6.011   4.312  1.8849  1.1931 -0.3831
 1869SOL    HW2 7049   0.945   6.157   4.349 -0.6501  1.3291 -1.2431
 1870SOL     OW 7050   6.120   5.638  10.399  0.0138 -0.0773 -0.4090
 1870SOL    HW1 7051   6.181   5.602  10.463 -0.3360 -2.2431 -1.2232
 1870SOL    HW2 7052   6.128   5.581  10.323 -2.0002  0.4279 -1.0608
 1871SOL     OW 7053   4.806   7.454   2.818 -0.3036 -0.1197 -0.1106
 1871SOL    HW1 7054   4.790   7.402   2.739 -1.4722 -1.2505  0.8273
 1871SOL    HW2 7055   4.788   7.394   2.890  1.3316  0.7056  1.0487
 1872SOL     OW 7056   3.014   2.350   9.174  0.1036 -0.0687  0.0127
 1872SOL    HW1 7057   3.000   2.433   9.128 -0.0856 -0.0543  0.0944
 1872SOL    HW2 7058   3.080   2.370   9.240 -1.0022  0.3987  1.0222
 1873SOL     OW 7059   4.901   0.194   7.834 -0.5057 -0.5097 -0.2008
 1873SOL    HW1 7060   4.913   0.163   7.744 -2.4200 -0.4937 -0.5154
 1873SOL    HW2 7061   4.813   0.165   7.857 -0.0579 -0.4683  1.6686
 1874SOL     OW 7062   1.568   5.213   3.481  0.4312 -0.3076 -0.5286
 1874SOL    HW1 7063   1.627   5.139   3.469  0.5638 -0.1022 -1.1697
 1874SOL    HW2 7064   1.611   5.268   3.546  2.3487  1.2363 -2.9148
 1875SOL     OW 7065   2.703   4.411   9.848  0.2303  0.3123 -0.5435
 1875SOL    HW1 7066   2.750   4.333   9.878 -0.0216  1.2126  2.5199
 1875SOL    HW2 7067   2.611   4.389   9.860  0.1774  1.2628  1.0053
 1876SOL     OW 7068   0.612   6.901   0.497  0.3771  0.2451 -0.3521
 1876SOL    HW1 7069   0.549   6.972   0.504  0.2711  0.3979 -2.3242
 1876SOL    HW2 7070   0.680   6.934   0.439  1.7932 -0.2944  0.9198
 1877SOL     OW 7071   4.023   4.666  11.277  0.5089 -0.0200  0.1050
 1877SOL    HW1 7072   4.000   4.661  11.184  0.0320 -1.1709  0.2788
 1877SOL    HW2 7073   3.998   4.582  11.313 -0.1192  0.7250  1.4743
 1878SOL     OW 7074   4.686   5.358   7.365 -0.5322 -0.1577 -0.3214
 1878SOL    HW1 7075   4.768   5.334   7.323 -1.5078 -0.9494 -1.8734
 1878SOL    HW2 7076   4.654   5.434   7.317 -3.1186 -2.7857 -3.2718
 1879SOL     OW 7077   3.911   6.379   9.497 -1.0476 -0.3452  0.1253
 1879SOL    HW1 7078   3.889   6.333   9.416 -1.6082  0.7863 -0.3843
 1879SOL    HW2 7079   4.005   6.366   9.508 -1.2731 -2.0342  0.2795
 1880SOL     OW 7080   2.101   5.502  10.266  0.2826  0.4118 -0.0310
 1880SOL    HW1 7081   2.017   5.495  10.312 -1.0779 -1.1333 -2.4966
 1880SOL    HW2 7082   2.129   5.592  10.281 -1.8175  0.9744  0.9008
 1881SOL     OW 7083   1.810   4.577   6.364  0.5161 -0.0717  0.7054
 1881SOL    HW1 7084   1.872   4.507   6.345  2.9893  2.0796  0.3515
 1881SOL    HW2 7085   1.734   4.531   6.401  1.5990 -2.9789 -0.3344
 1882SOL     OW 7086   6.318   4.507  11.663  0.5916  0.3254  0.4656
 1882SOL    HW1 7087   6.370   4.553  11.729 -0.0717  1.0844  0.4698
 1882SOL    HW2 7088   6.351   4.417  11.664  1.8889  0.7841  0.4842
 1883SOL     OW 7089   3.398   5.184   4.736  0.2394 -0.1949  0.2873
 1883SOL    HW1 7090   3.374   5.202   4.645 -0.1329  1.3530  0.6572
 1883SOL    HW2 7091   3.343   5.243   4.787 -1.7515 -3.0911  1.7511
 1884SOL     OW 7092   3.347   6.459  11.427 -0.0896  0.3889 -0.2370
 1884SOL    HW1 7093   3.354   6.482  11.335  2.1322 -0.4861 -0.3409
 1884SOL    HW2 7094   3.323   6.367  11.427  2.1804 -0.2618 -0.0442
 1885SOL     OW 7095   7.628   3.153   5.351 -0.0771  0.3679  0.0461
 1885SOL    HW1 7096   7.641   3.087   5.283 -0.5102  1.1663 -0.8354
 1885SOL    HW2 7097   7.582   3.224   5.306  0.3513  1.2513  0.9826
 1886SOL     OW 7098   5.594   3.256   5.251 -0.2778  0.2223 -0.6881
 1886SOL    HW1 7099   5.506   3.230   5.278  0.4346  0.0504  1.7510
 1886SOL    HW2 7100   5.610   3.338   5.300  1.8325 -1.1381  1.0895
 1887SOL     OW 7101   6.414   7.151   7.429 -0.2511 -0.3479 -0.5243
 1887SOL    HW1 7102   6.397   7.059   7.408 -0.1759 -0.2181 -1.1659
 1887SOL    HW2 7103   6.372   7.200   7.358  0.2811  0.0840 -0.5517
 1888SOL     OW 7104   0.160   2.652   6.448 -0.1984  0.3464 -0.8693
 1888SOL    HW1 7105   0.116   2.608   6.375  0.7332 -1.3421 -0.4456
 1888SOL    HW2 7106   0.106   2.729   6.465 -2.7305 -1.3629 -0.7022
 1889SOL     OW 7107   3.958   5.478   1.838 -0.5278  0.0884  0.6765
 1889SOL    HW1 7108   3.950   5.386   1.813  0.1356  0.5211 -1.3056
 1889SOL    HW2 7109   4.010   5.476   1.919  1.8601 -1.1770 -0.7645
 1890SOL     OW 7110   0.977   7.920   6.939  0.1542 -0.0719 -0.0708
 1890SOL    HW1 7111   0.890   7.939   6.904  0.2939 -1.1427 -1.0554
 1890SOL    HW2 7112   0.969   7.938   7.033 -1.2159 -0.4632 -0.0862
 1891SOL     OW 7113   3.463   6.345  11.713 -0.2015  0.0960  0.1845
 1891SOL    HW1 7114   3.499   6.354  11.801 -0.7564 -3.5835  0.9858
 1891SOL    HW2 7115   3.466   6.250  11.696 -3.0148  0.3276 -2.4828
 1892SOL     OW 7116   7.043   5.289   4.290  0.0700  0.0089  0.2045
 1892SOL    HW1 7117   7.029   5.224   4.221 -0.2394  0.3555 -0.0681
 1892SOL    HW2 7118   6.989   5.259   4.363 -0.5272  0.2483 -0.1211
 1893SOL     OW 7119   6.283   4.727   3.590  0.1090  0.1311  0.2835
 1893SOL    HW1 7120   6.225   4.803   3.590 -0.5775 -0.3608 -0.7588
 1893SOL    HW2 7121   6.224   4.652   3.588  0.7799 -0.4429  1.2189
 1894SOL     OW 7122   1.918   0.638  10.267 -0.3124 -0.1621 -0.1089
 1894SOL    HW1 7123   2.012   0.655  10.264 -0.4848  0.9046  0.2454
 1894SOL    HW2 7124   1.899   0.595  10.183  0.8242 -2.3484  0.6704
 1895SOL     OW 7125   5.449   5.121   6.646 -0.0061  0.2161  0.0555
 1895SOL    HW1 7126   5.540   5.109   6.620 -0.0322 -0.9888  0.4168
 1895SOL    HW2 7127   5.399   5.069   6.583 -0.0210 -3.2778  2.6528
 1896SOL     OW 7128   7.174   1.155   4.273  0.3570 -0.0861  0.0533
 1896SOL    HW1 7129   7.249   1.107   4.238  0.5499  0.3457 -0.1295
 1896SOL    HW2 7130   7.182   1.145   4.368  1.0288  0.5181  0.0679
 1897SOL     OW 7131   0.812   5.260   8.121  0.3150 -0.8651 -0.0660
 1897SOL    HW1 7132   0.758   5.306   8.186 -2.3660 -3.1429 -0.4966
 1897SOL    HW2 7133   0.889   5.232   8.170 -0.1356  0.1597  1.3146
 1898SOL     OW 7134   6.457   0.755   9.609 -0.1860 -0.0418 -0.0247
 1898SOL    HW1 7135   6.410   0.686   9.656 -0.4343 -0.2567 -0.5831
 1898SOL    HW2 7136   6.538   0.766   9.658 -1.5006  1.5026  1.9642
 1899SOL     OW 7137   2.377   1.453   8.864  0.3007  0.5661  0.7131
 1899SOL    HW1 7138   2.467   1.478   8.843  0.3764  0.3647  0.7885
 1899SOL    HW2 7139   2.348   1.517   8.929  0.7537  0.0145  1.4695
 1900SOL     OW 7140   2.425   7.020   1.363 -0.3460  0.0663 -0.2369
 1900SOL    HW1 7141   2.387   6.936   1.336  2.9728 -1.5530 -0.3125
 1900SOL    HW2 7142   2.474   7.050   1.286 -0.9096  1.7841  0.0210
 1901SOL     OW 7143   0.846   7.057   7.751  0.1124 -0.8883 -0.0447
 1901SOL    HW1 7144   0.880   6.970   7.772  1.9200 -0.2938 -0.3579
 1901SOL    HW2 7145   0.835   7.100   7.836  0.1186 -1.0964  0.0601
 1902SOL     OW 7146   1.140   5.459   8.645 -0.3118  0.2710  0.1488
 1902SOL    HW1 7147   1.169   5.368   8.640  0.1404  0.4187  0.0388
 1902SOL    HW2 7148   1.221   5.510   8.653 -0.4686  0.7549 -1.0502
 1903SOL     OW 7149   1.855   2.169  12.184 -0.0613 -0.5904  0.6216
 1903SOL    HW1 7150   1.828   2.077  12.186  0.6113 -0.7859  1.1586
 1903SOL    HW2 7151   1.950   2.166  12.176 -0.0200  0.0544  0.8335
 1904SOL     OW 7152   6.771   3.322   4.986  0.7672 -0.4303  0.0187
 1904SOL    HW1 7153   6.781   3.357   4.897 -1.1762  1.2781  0.3794
 1904SOL    HW2 7154   6.705   3.253   4.978  1.1091 -0.7676  0.0502
 1905SOL     OW 7155   6.961   2.323   8.881 -0.1419  0.1488  0.4526
 1905SOL    HW1 7156   7.041   2.303   8.832 -0.1056 -0.8764  0.9150
 1905SOL    HW2 7157   6.947   2.417   8.866  0.5389  0.1103 -0.5200
 1906SOL     OW 7158   7.111   3.622   8.421  0.1509 -0.2672  0.2511
 1906SOL    HW1 7159   7.119   3.713   8.392 -0.9024  0.0054  0.7732
 1906SOL    HW2 7160   7.157   3.572   8.355 -0.0228  0.5712 -0.5272
 1907SOL     OW 7161   7.178   0.385   6.054 -0.8747  0.3047 -0.3921
 1907SOL    HW1 7162   7.203   0.305   6.008  0.1600  1.0961 -1.2675
 1907SOL    HW2 7163   7.209   0.373   6.144  2.6627  1.1217 -1.3287
 1908SOL     OW 7164   0.264   4.309   6.130  0.5293  0.3678  0.2146
 1908SOL    HW1 7165   0.180   4.353   6.117  0.4875  0.2503  0.0772
 1908SOL    HW2 7166   0.328   4.380   6.138  0.7771  0.4797 -2.0115
 1909SOL     OW 7167   6.722   7.424   7.579 -0.1692 -0.4613  0.1790
 1909SOL    HW1 7168   6.775   7.467   7.512 -1.1797  1.2410  0.4121
 1909SOL    HW2 7169   6.759   7.454   7.662 -0.8649 -0.0424  0.3449
 1910SOL     OW 7170   2.851   5.758  11.510  0.3333 -0.1829 -0.0791
 1910SOL    HW1 7171   2.797   5.796  11.579  0.9584 -0.4284  0.5660
 1910SOL    HW2 7172   2.806   5.677  11.486  0.8534 -0.8521  1.0927
 1911SOL     OW 7173   6.372   2.718   0.863 -0.3699 -0.0887 -0.0382
 1911SOL    HW1 7174   6.322   2.792   0.827 -0.9179 -0.3937  0.0780
 1911SOL    HW2 7175   6.355   2.646   0.803 -0.5499 -0.3559  0.3300
 1912SOL     OW 7176   6.116   0.963   9.018  0.1302  0.3281 -0.2927
 1912SOL    HW1 7177   6.204   1.000   9.022 -0.2184  1.1487 -0.0600
 1912SOL    HW2 7178   6.116   0.911   8.937  1.6901 -2.0117  1.0824
 1913SOL     OW 7179   7.097   6.821   4.927  0.5850  0.6792  0.4165
 1913SOL    HW1 7180   7.168   6.847   4.986  0.8912  0.7598  0.0176
 1913SOL    HW2 7181   7.049   6.902   4.910  0.2412  0.5763  0.8908
 1914SOL     OW 7182   4.795   0.619   9.608  0.3819 -0.1271 -0.0702
 1914SOL    HW1 7183   4.756   0.550   9.661 -0.8489 -0.6252 -1.5584
 1914SOL    HW2 7184   4.829   0.683   9.672 -0.8779 -0.7740  1.2892
 1915SOL     OW 7185   7.926   0.534   6.883  0.1084  0.0014 -0.0631
 1915SOL    HW1 7186   7.907   0.584   6.962  0.1518 -0.7260  0.4103
 1915SOL    HW2 7187   7.848   0.546   6.828 -1.5828 -2.4593  1.6099
 1916SOL     OW 7188   5.893   2.281   4.163  0.0895  0.2780  0.2263
 1916SOL    HW1 7189   5.986   2.262   4.173  0.2242  1.1301  0.6440
 1916SOL    HW2 7190   5.885   2.318   4.075  0.0258 -0.4842 -0.0931
 1917SOL     OW 7191   3.054   1.278   4.406  0.7100 -0.0553 -0.0923
 1917SOL    HW1 7192   3.132   1.272   4.351 -0.3919 -2.9643 -1.5861
 1917SOL    HW2 7193   2.988   1.318   4.350  0.4717  0.1798  0.3483
 1918SOL     OW 7194   7.265   4.479   9.608  0.1105  0.1532 -0.5779
 1918SOL    HW1 7195   7.323   4.503   9.536 -0.2682  1.5076 -0.4509
 1918SOL    HW2 7196   7.303   4.398   9.643  1.4806  0.5940 -0.9701
 1919SOL     OW 7197   2.087   4.953   6.849  0.0923 -0.5301 -0.4791
 1919SOL    HW1 7198   2.093   5.036   6.895  2.8384 -1.2479  0.6752
 1919SOL    HW2 7199   2.022   4.903   6.897  0.4465 -0.0270  0.5569
 1920SOL     OW 7200   0.173   6.815   8.816  0.0982 -0.0302  0.1452
 1920SOL    HW1 7201   0.089   6.804   8.860  1.0780 -2.5396  1.5939
 1920SOL    HW2 7202   0.231   6.852   8.882  0.6143 -0.2062 -0.1986
 1921SOL     OW 7203   3.561   4.048   2.753 -0.4161  0.0859  0.1011
 1921SOL    HW1 7204   3.599   3.962   2.770 -1.3555 -0.6238 -1.1540
 1921SOL    HW2 7205   3.618   4.087   2.686 -1.1243 -0.4553 -0.8533
 1922SOL     OW 7206   2.605   5.985   6.254 -0.3585 -0.2322  0.8124
 1922SOL    HW1 7207   2.566   5.939   6.328 -0.2208  0.6963  1.4868
 1922SOL    HW2 7208   2.696   5.999   6.279  0.1430 -1.4064 -0.2781
 1923SOL     OW 7209   5.891   0.202   8.108 -0.0766  0.5553 -0.1257
 1923SOL    HW1 7210   5.820   0.209   8.172 -0.0147 -2.0710  0.3018
 1923SOL    HW2 7211   5.857   0.142   8.042  0.9578  0.9909 -1.0835
 1924SOL     OW 7212   6.899   3.731   8.955 -0.0095  0.0647  0.3636
 1924SOL    HW1 7213   6.810   3.713   8.986  0.2961 -2.5823 -0.0857
 1924SOL    HW2 7214   6.886   3.779   8.873 -1.1000 -1.1969 -0.2446
 1925SOL     OW 7215   4.362   5.633   6.264 -0.4607  0.3010  0.1649
 1925SOL    HW1 7216   4.379   5.591   6.349  0.1983  0.8742  0.3273
 1925SOL    HW2 7217   4.396   5.571   6.199 -1.4367 -0.3793  0.2758
 1926SOL     OW 7218   0.942   5.094   0.237 -0.2521  0.1694 -0.0190
 1926SOL    HW1 7219   0.876   5.133   0.294 -0.5549  0.6612 -0.6930
 1926SOL    HW2 7220   0.898   5.021   0.195 -0.5495  0.8308 -0.8841
 1927SOL     OW 7221   6.754   2.670   4.696  0.5662  0.0266  0.0903
 1927SOL    HW1 7222   6.814   2.636   4.629  0.1900 -1.7438  0.5784
 1927SOL    HW2 7223   6.810   2.719   4.755  1.6302 -1.7039  0.6056
 1928SOL     OW 7224   1.615   0.827   3.072  0.0518 -0.4810 -0.1020
 1928SOL    HW1 7225   1.526   0.863   3.079  0.5968  0.7888  0.3854
 1928SOL    HW2 7226   1.657   0.850   3.154  1.0795 -0.4241 -0.6345
 1929SOL     OW 7227   0.386   5.443   8.535  0.6563  0.3524 -0.1880
 1929SOL    HW1 7228   0.328   5.427   8.610  0.5460  0.1035 -0.3277
 1929SOL    HW2 7229   0.466   5.477   8.575 -0.3581  2.9269 -0.1292
 1930SOL     OW 7230   3.984   3.215   0.037 -0.1004 -0.3539  0.5272
 1930SOL    HW1 7231   4.072   3.207   0.001  0.1237 -1.0806  1.2023
 1930SOL    HW2 7232   3.990   3.284   0.103 -0.2575  0.2342 -0.0716
 1931SOL     OW 7233   6.648   6.078   0.255 -0.5633  0.2419  0.5595
 1931SOL    HW1 7234   6.678   6.133   0.326  0.7919 -0.4837  0.5798
 1931SOL    HW2 7235   6.555   6.098   0.246 -0.1068  2.5723  0.4958
 1932SOL     OW 7236   4.800   6.453   2.583 -0.2821  0.6699  0.2411
 1932SOL    HW1 7237   4.849   6.527   2.548 -1.2553  1.4424  0.4590
 1932SOL    HW2 7238   4.740   6.428   2.513  0.1860 -0.0694  0.0884
 1933SOL     OW 7239   4.644   2.702   9.526  0.1312  0.5400  0.4204
 1933SOL    HW1 7240   4.674   2.710   9.436 -1.9890 -1.0629 -0.5006
 1933SOL    HW2 7241   4.655   2.609   9.547 -0.8150  0.6072  1.2753
 1934SOL     OW 7242   0.405   6.093   6.437  0.1364  0.3990 -0.3527
 1934SOL    HW1 7243   0.333   6.073   6.497 -0.5986  1.1048 -0.9790
 1934SOL    HW2 7244   0.471   6.028   6.457 -0.7331 -0.3589  0.1476
 1935SOL     OW 7245   0.551   4.906   7.837  0.0795 -0.3047 -0.4286
 1935SOL    HW1 7246   0.605   4.949   7.903 -0.5314 -1.0916  0.6051
 1935SOL    HW2 7247   0.461   4.924   7.864 -0.1914 -1.8235 -0.2257
 1936SOL     OW 7248   1.655   6.045   5.258 -0.4291  0.3969  0.6145
 1936SOL    HW1 7249   1.679   6.135   5.281  0.1967  0.2476  0.5693
 1936SOL    HW2 7250   1.651   6.046   5.162 -0.1817  0.3212  0.6021
 1937SOL     OW 7251   7.041   4.667   8.288  0.1460 -0.2802 -0.0645
 1937SOL    HW1 7252   6.987   4.683   8.366 -0.6985  1.6949 -0.9651
 1937SOL    HW2 7253   7.006   4.587   8.250 -0.6131 -0.2893  0.6362
 1938SOL     OW 7254   5.390   5.814  10.964 -0.3467 -0.0899 -0.5523
 1938SOL    HW1 7255   5.388   5.741  10.902 -1.7605 -0.6375  0.0838
 1938SOL    HW2 7256   5.301   5.817  11.000 -0.1975  1.6944 -0.2546
 1939SOL     OW 7257   5.025   5.482   7.337  0.1868 -0.2158 -0.3541
 1939SOL    HW1 7258   5.032   5.577   7.340  0.0625 -0.2211  0.7448
 1939SOL    HW2 7259   5.082   5.452   7.408 -0.6943 -0.8936  0.0801
 1940SOL     OW 7260   2.001   7.582   7.582 -0.4065 -0.1562 -0.2538
 1940SOL    HW1 7261   2.090   7.609   7.606  0.4598 -1.5494 -1.6858
 1940SOL    HW2 7262   1.977   7.641   7.510 -0.5426  0.0433 -0.0467
 1941SOL     OW 7263   5.220   4.707  11.229 -0.6763 -0.4111 -0.4766
 1941SOL    HW1 7264   5.133   4.667  11.224 -1.6738  1.7579 -4.0440
 1941SOL    HW2 7265   5.205   4.794  11.265  0.7485 -1.2574  2.5118
 1942SOL     OW 7266   5.942   0.789  11.176 -0.7704 -0.3176  0.0919
 1942SOL    HW1 7267   5.988   0.784  11.260  1.2170 -0.1205 -0.9092
 1942SOL    HW2 7268   5.865   0.842  11.194  0.1168  0.5522  1.5879
 1943SOL     OW 7269   7.612   3.110   4.079 -0.0110 -0.5549  0.0290
 1943SOL    HW1 7270   7.681   3.049   4.052  1.0969  0.8438 -0.4410
 1943SOL    HW2 7271   7.603   3.170   4.005 -0.5564  0.2885  0.7600
 1944SOL     OW 7272   0.283   0.711  10.273 -0.1546  0.3745 -0.5033
 1944SOL    HW1 7273   0.353   0.750  10.220  1.7479 -0.8746  0.9676
 1944SOL    HW2 7274   0.309   0.619  10.281 -0.7399  0.3763  1.9710
 1945SOL     OW 7275   1.078   1.282   6.228  0.0914  0.2770 -0.1460
 1945SOL    HW1 7276   1.130   1.337   6.285 -1.3613  0.9863  0.5623
 1945SOL    HW2 7277   0.992   1.325   6.225 -0.0169 -0.0035 -2.4978
 1946SOL     OW 7278   4.034   4.242   0.657  0.3483 -0.0073  0.0785
 1946SOL    HW1 7279   4.056   4.169   0.715  0.9075 -0.3616 -0.5745
 1946SOL    HW2 7280   4.034   4.318   0.716  0.2204 -0.4578  0.6767
 1947SOL     OW 7281   4.365   4.048   1.538 -0.6494 -0.2109 -0.0756
 1947SOL    HW1 7282   4.367   4.143   1.543 -1.5772 -0.0691 -1.5970
 1947SOL    HW2 7283   4.437   4.025   1.479 -2.0398 -0.1863 -1.8907
 1948SOL     OW 7284   6.320   1.836   1.856  0.2870  0.3919 -0.1121
 1948SOL    HW1 7285   6.317   1.783   1.776 -0.8087 -0.9308  0.7779
 1948SOL    HW2 7286   6.408   1.875   1.855  0.1681  0.7253 -2.1462
 1949SOL     OW 7287   6.593   2.767   8.464  0.0950 -0.5106 -0.8625
 1949SOL    HW1 7288   6.593   2.861   8.480  2.9085 -0.5179 -0.3099
 1949SOL    HW2 7289   6.502   2.740   8.479 -0.9510  2.1817 -1.7592
 1950SOL     OW 7290   4.074   2.461   5.251 -0.0920 -0.0501  0.3956
 1950SOL    HW1 7291   4.078   2.366   5.235  0.4550  0.0761 -0.2244
 1950SOL    HW2 7292   4.152   2.496   5.209  0.2011  0.5739  1.4322
 1951SOL     OW 7293   0.758   5.308   7.278  0.4882  0.1854 -0.5620
 1951SOL    HW1 7294   0.705   5.339   7.204  0.6277  0.6317 -0.4756
 1951SOL    HW2 7295   0.784   5.387   7.324 -0.7209 -0.1398  0.7687
 1952SOL     OW 7296   4.609   3.542   8.521  0.5211 -0.1029 -0.3096
 1952SOL    HW1 7297   4.522   3.558   8.486  0.9102 -0.1054 -1.3235
 1952SOL    HW2 7298   4.611   3.448   8.538  0.7509 -0.3326 -1.5308
 1953SOL     OW 7299   4.760   0.803   4.181  0.0513 -0.2524  0.0605
 1953SOL    HW1 7300   4.832   0.747   4.211 -1.7445 -2.1110  1.2163
 1953SOL    HW2 7301   4.720   0.755   4.109 -0.7855  0.1044  0.2692
 1954SOL     OW 7302   1.631   6.718   3.794  0.1291 -0.7664  0.2064
 1954SOL    HW1 7303   1.635   6.812   3.779  0.6295 -0.9750 -1.0067
 1954SOL    HW2 7304   1.560   6.707   3.858  0.1706  0.4369  0.4741
 1955SOL     OW 7305   2.570   7.092   1.129 -0.2806 -0.4107 -0.4512
 1955SOL    HW1 7306   2.619   7.064   1.052 -0.4272 -0.8350 -0.3943
 1955SOL    HW2 7307   2.636   7.130   1.187 -0.1608 -0.1451 -0.7601
 1956SOL     OW 7308   7.520   0.487   0.927  0.0157  0.1048 -0.1540
 1956SOL    HW1 7309   7.489   0.397   0.935  0.6525 -0.0978  0.1573
 1956SOL    HW2 7310   7.459   0.538   0.979  0.1985 -0.2844  0.4552
 1957SOL     OW 7311   5.843   1.642   4.625 -0.5431 -0.1797  0.0805
 1957SOL    HW1 7312   5.750   1.622   4.632 -0.4806 -0.2217  0.8810
 1957SOL    HW2 7313   5.852   1.687   4.541 -1.2766 -0.1948 -0.0091
 1958SOL     OW 7314   4.674   0.254   7.068  0.5562  0.4049  0.0837
 1958SOL    HW1 7315   4.696   0.161   7.063 -1.3555 -0.2025  1.9744
 1958SOL    HW2 7316   4.628   0.264   7.150 -1.7148  2.5162 -1.3178
 1959SOL     OW 7317   6.054   2.999   2.568 -0.0777  0.1103  0.0636
 1959SOL    HW1 7318   6.098   2.928   2.615 -0.7663 -0.4811 -0.1649
 1959SOL    HW2 7319   6.094   2.999   2.481  0.2031  0.2747  0.1894
 1960SOL     OW 7320   1.302   6.320  10.702 -0.9315  0.0029 -0.0587
 1960SOL    HW1 7321   1.377   6.262  10.696 -1.0744 -0.3113  1.0175
 1960SOL    HW2 7322   1.339   6.405  10.725 -0.9347 -0.3119  1.2099
 1961SOL     OW 7323   6.628   1.146   3.645  0.0722 -0.4475 -0.3340
 1961SOL    HW1 7324   6.534   1.156   3.631  0.0572  1.4543  0.7395
 1961SOL    HW2 7325   6.636   1.106   3.731  0.1953  1.3431  0.5437
 1962SOL     OW 7326   3.013   3.838   0.541  0.3440 -0.0078 -0.4023
 1962SOL    HW1 7327   3.008   3.855   0.635 -2.3971 -0.6296 -0.3670
 1962SOL    HW2 7328   3.101   3.867   0.516  1.1888  0.0295  2.3509
 1963SOL     OW 7329   3.425   1.315   5.981 -0.0820 -0.4543 -0.6163
 1963SOL    HW1 7330   3.420   1.367   5.901  0.5105 -0.4971 -0.6848
 1963SOL    HW2 7331   3.406   1.378   6.051  1.4827  0.0668 -0.6280
 1964SOL     OW 7332   6.412   4.645  11.060 -0.0907  0.9013 -0.0229
 1964SOL    HW1 7333   6.390   4.561  11.099 -0.5593  0.9256 -0.2267
 1964SOL    HW2 7334   6.370   4.643  10.974  1.5175  0.5461 -0.8618
 1965SOL     OW 7335   2.554   7.099  10.800  0.1451  0.4263  0.3315
 1965SOL    HW1 7336   2.601   7.147  10.732 -1.0851 -0.2800 -1.0892
 1965SOL    HW2 7337   2.470   7.144  10.809 -0.2287 -0.2594  0.4085
 1966SOL     OW 7338   2.018   5.406   0.993 -0.0702  0.5288  0.0877
 1966SOL    HW1 7339   1.984   5.355   1.066 -1.3015 -0.3986 -1.0670
 1966SOL    HW2 7340   1.962   5.381   0.919  0.2766  2.4236 -0.8667
 1967SOL     OW 7341   6.214   0.266   8.294  0.1230 -0.4607  0.0848
 1967SOL    HW1 7342   6.223   0.322   8.370 -0.1805 -0.4953  0.1507
 1967SOL    HW2 7343   6.226   0.177   8.327  0.0331 -0.4726  0.0876
 1968SOL     OW 7344   1.351   6.829   6.900  0.5475  0.0348 -0.0256
 1968SOL    HW1 7345   1.265   6.809   6.936  0.4030 -0.2639 -0.5264
 1968SOL    HW2 7346   1.404   6.856   6.976  0.1959 -0.3964  0.3741
 1969SOL     OW 7347   5.115   2.931  10.945  0.0849  0.4658 -0.0802
 1969SOL    HW1 7348   5.163   2.946  10.863  0.0416  1.8804  0.1420
 1969SOL    HW2 7349   5.088   3.018  10.973 -1.1654 -0.1587  0.6896
 1970SOL     OW 7350   6.368   6.325   5.630 -0.0330 -1.2739 -0.3489
 1970SOL    HW1 7351   6.380   6.316   5.724  1.1868  0.7483 -0.2573
 1970SOL    HW2 7352   6.420   6.401   5.606 -0.6354 -1.4945 -2.6103
 1971SOL     OW 7353   4.804   1.549   2.854  0.0885  0.1538  0.2990
 1971SOL    HW1 7354   4.808   1.491   2.930 -0.4303  0.4298  0.5399
 1971SOL    HW2 7355   4.813   1.491   2.778  0.0257 -0.1879  0.5540
 1972SOL     OW 7356   1.988   6.418   1.238  0.2138  0.3317  0.1611
 1972SOL    HW1 7357   2.006   6.339   1.188  0.1196 -0.5799  1.5135
 1972SOL    HW2 7358   1.909   6.397   1.288  0.2458  1.2446  0.6147
 1973SOL     OW 7359   7.330   2.696   5.147 -0.2811 -0.2229 -0.0251
 1973SOL    HW1 7360   7.419   2.665   5.165  0.1092  0.6817 -0.3401
 1973SOL    HW2 7361   7.281   2.674   5.225  0.3596 -0.2394  0.3812
 1974SOL     OW 7362   2.817   3.131   2.848 -0.1826 -0.2191 -0.0827
 1974SOL    HW1 7363   2.778   3.219   2.850 -0.7799 -0.4827  0.1980
 1974SOL    HW2 7364   2.909   3.146   2.825  0.5398  0.8025  2.9191
 1975SOL     OW 7365   1.885   5.061   0.068  0.1188  0.8652 -0.2850
 1975SOL    HW1 7366   1.882   5.053   0.163  0.3302  1.0572 -0.2605
 1975SOL    HW2 7367   1.881   5.156   0.051  1.6889  0.9508 -0.3930
 1976SOL     OW 7368   5.539   0.176   1.351  0.0074 -0.7205 -0.5246
 1976SOL    HW1 7369   5.490   0.251   1.316 -0.0234 -1.1397 -1.4212
 1976SOL    HW2 7370   5.475   0.106   1.358  0.0971 -0.7517  0.0440
 1977SOL     OW 7371   6.594   5.700   6.939  0.0923  0.0552  0.5341
 1977SOL    HW1 7372   6.673   5.689   6.991 -0.7797  0.1712  1.9216
 1977SOL    HW2 7373   6.596   5.626   6.878  0.6917 -0.6015  1.3261
 1978SOL     OW 7374   4.431   0.853   0.606  0.3203  0.3314  0.2923
 1978SOL    HW1 7375   4.434   0.938   0.648 -2.6576  1.1636 -0.9718
 1978SOL    HW2 7376   4.376   0.799   0.662  1.5944 -0.6110  0.7068
 1979SOL     OW 7377   1.001   1.565  12.030  0.0593 -0.4926 -0.8691
 1979SOL    HW1 7378   0.918   1.598  12.064  0.9548  0.2125  0.7385
 1979SOL    HW2 7379   0.978   1.482  11.987 -1.4987 -0.2100 -0.6373
 1980SOL     OW 7380   1.963   7.334  12.018 -0.1347 -0.3143 -0.5272
 1980SOL    HW1 7381   2.041   7.297  11.978  0.8247  0.7045  0.3373
 1980SOL    HW2 7382   1.996   7.403  12.076 -1.7247  0.6825 -0.7507
 1981SOL     OW 7383   5.577   3.900   6.165  0.1152 -0.0470 -0.3885
 1981SOL    HW1 7384   5.487   3.926   6.146 -0.3877  0.5660  2.4731
 1981SOL    HW2 7385   5.570   3.838   6.237  1.8742 -2.0789 -1.8140
 1982SOL     OW 7386   7.933   0.738   4.854 -0.9274  0.6352 -0.4004
 1982SOL    HW1 7387   7.945   0.786   4.936  1.2510 -1.6337  0.7285
 1982SOL    HW2 7388   8.011   0.760   4.802 -0.8096 -0.2513 -0.6081
 1983SOL     OW 7389   3.172   1.209   2.847 -0.1248  0.5578 -0.2077
 1983SOL    HW1 7390   3.158   1.116   2.864 -0.2455  0.2764 -1.7136
 1983SOL    HW2 7391   3.263   1.225   2.871  1.0030 -0.7888 -3.1048
 1984SOL     OW 7392   6.735   4.336  11.974 -0.2105 -0.5673 -0.0181
 1984SOL    HW1 7393   6.687   4.255  11.992 -0.3683 -0.4616  0.0397
 1984SOL    HW2 7394   6.796   4.345  12.046 -2.5312  1.1662  1.8840
 1985SOL     OW 7395   3.189   2.919  10.126  0.1896 -0.3875  0.2700
 1985SOL    HW1 7396   3.125   2.882  10.066 -2.0836  0.5665  1.9550
 1985SOL    HW2 7397   3.137   2.952  10.199  2.7512 -1.1489  2.6236
 1986SOL     OW 7398   7.905   0.279   3.306 -0.7058  0.2021 -0.2035
 1986SOL    HW1 7399   7.832   0.336   3.281 -0.4452 -0.0659 -1.6684
 1986SOL    HW2 7400   7.971   0.338   3.343 -0.6418  0.7948 -1.2291
 1987SOL     OW 7401   5.965   7.272   7.187  0.2216  0.0116  0.3006
 1987SOL    HW1 7402   5.957   7.177   7.200 -0.1838 -0.1763 -1.1005
 1987SOL    HW2 7403   5.940   7.310   7.271 -0.1771 -1.1134  0.7156
 1988SOL     OW 7404   1.155   1.153  10.927  0.3355  0.0154 -0.4714
 1988SOL    HW1 7405   1.111   1.232  10.957 -1.8374 -1.0282 -0.7376
 1988SOL    HW2 7406   1.241   1.156  10.970 -0.0029  2.0604  0.1836
 1989SOL     OW 7407   7.441   5.117   4.642  0.0561  0.5941  0.7376
 1989SOL    HW1 7408   7.358   5.154   4.613  0.2477 -0.5194 -1.4571
 1989SOL    HW2 7409   7.496   5.119   4.564  0.9116 -1.9177  1.1830
 1990SOL     OW 7410   3.527   6.810   6.916 -0.5391 -0.6043  0.1624
 1990SOL    HW1 7411   3.611   6.855   6.928 -1.2833  0.6469  0.8683
 1990SOL    HW2 7412   3.499   6.835   6.828 -0.0827 -1.2070 -0.1631
 1991SOL     OW 7413   4.998   3.205   1.242  0.3703 -0.1152 -0.2931
 1991SOL    HW1 7414   5.076   3.260   1.235  0.5617 -0.5420 -2.1910
 1991SOL    HW2 7415   4.947   3.226   1.164 -0.9018 -0.6241  0.3747
 1992SOL     OW 7416   2.756   2.256   0.095 -0.3915 -0.0649 -0.0338
 1992SOL    HW1 7417   2.829   2.217   0.145 -0.0816 -2.2254 -1.9712
 1992SOL    HW2 7418   2.798   2.292   0.017 -0.5726  5.1624  1.9245
 1993SOL     OW 7419   3.076   7.803  11.670 -0.4294 -0.2044 -0.0068
 1993SOL    HW1 7420   3.082   7.708  11.682  0.5200  0.0025  1.2743
 1993SOL    HW2 7421   3.147   7.839  11.722 -1.2803  1.2755  0.1881
 1994SOL     OW 7422   6.871   2.421   4.205 -0.1912  0.3303 -0.2785
 1994SOL    HW1 7423   6.945   2.386   4.254 -1.0055 -0.3697  0.4934
 1994SOL    HW2 7424   6.876   2.377   4.120  0.2056  0.1898 -0.1853
 1995SOL     OW 7425   0.810   2.257   4.098  0.7671 -0.5725  0.0879
 1995SOL    HW1 7426   0.891   2.210   4.080  1.6101 -1.4179  4.7629
 1995SOL    HW2 7427   0.837   2.347   4.113  0.3887 -0.2999 -0.7742
 1996SOL     OW 7428   3.040   6.855   5.070  0.4021  0.4291  0.5386
 1996SOL    HW1 7429   3.110   6.913   5.100 -1.0351  1.3977  2.2568
 1996SOL    HW2 7430   3.007   6.814   5.150 -1.8834  1.0973  0.0259
 1997SOL     OW 7431   6.626   5.918  10.993  0.1469 -0.0125  0.2763
 1997SOL    HW1 7432   6.538   5.947  11.018  0.2494  0.2492  0.3346
 1997SOL    HW2 7433   6.678   5.998  10.992  0.6956 -0.3259  1.5165
 1998SOL     OW 7434   6.373   7.122   8.346 -0.2113 -0.6754 -0.3156
 1998SOL    HW1 7435   6.432   7.106   8.420 -0.9609 -0.4149  0.3475
 1998SOL    HW2 7436   6.414   7.076   8.273 -0.9679 -3.4917  0.8998
 1999SOL     OW 7437   1.555   6.595   8.152  0.0770 -0.0059 -0.4999
 1999SOL    HW1 7438   1.516   6.516   8.116 -0.3430  0.7419 -1.7486
 1999SOL    HW2 7439   1.484   6.659   8.153  1.1084  1.2996 -2.5608
 2000SOL     OW 7440   5.578   6.858   7.260 -0.2111  0.0437 -0.0521
 2000SOL    HW1 7441   5.655   6.901   7.297 -1.6470  0.6932  2.3960
 2000SOL    HW2 7442   5.594   6.765   7.276  0.4233  0.0972 -0.3236
 2001SOL     OW 7443   3.509   7.952   8.108 -0.3624 -0.0575 -0.1130
 2001SOL    HW1 7444   3.574   7.909   8.054 -0.5137 -0.0832 -0.2756
 2001SOL    HW2 7445   3.435   7.968   8.049 -0.2662  0.5152 -0.0797
 2002SOL     OW 7446   1.324   6.543  10.497  0.3132  0.4699  1.0950
 2002SOL    HW1 7447   1.231   6.521  10.498  0.0204  1.4983 -0.4140
 2002SOL    HW2 7448   1.366   6.463  10.464 -0.1149  0.2416  1.0874
 2003SOL     OW 7449   6.943   7.253   7.949 -1.0912 -0.1362 -0.1721
 2003SOL    HW1 7450   6.960   7.338   7.990 -0.1569 -0.2187 -0.3784
 2003SOL    HW2 7451   6.880   7.211   8.008 -0.0275 -0.1219  1.0194
 2004SOL     OW 7452   5.277   5.784  12.370 -0.0369  0.0261 -0.0419
 2004SOL    HW1 7453   5.221   5.859  12.348 -0.0669  0.0040 -0.0417
 2004SOL    HW2 7454   5.339   5.818  12.434 -1.3111 -0.4404  1.5017
 2005SOL     OW 7455   7.582   0.089   8.374  0.0339 -0.1139 -0.6914
 2005SOL    HW1 7456   7.556   0.003   8.341 -1.9829  0.7239 -1.4802
 2005SOL    HW2 7457   7.503   0.123   8.416  1.0572  1.0019  0.3874
 2006SOL     OW 7458   7.875   6.099   5.054 -0.2107  0.4341  0.4966
 2006SOL    HW1 7459   7.950   6.090   4.996  0.2005 -0.7677  1.1737
 2006SOL    HW2 7460   7.844   6.189   5.040  1.0064  0.7699 -0.1895
 2007SOL     OW 7461   4.026   0.285   5.842  0.2451 -0.4772  0.0065
 2007SOL    HW1 7462   4.109   0.310   5.882 -0.5528  2.2056  0.1331
 2007SOL    HW2 7463   3.995   0.364   5.799 -1.2651 -1.9735 -1.8777
 2008SOL     OW 7464   6.309   7.816   6.949  0.0450 -0.3693  0.0846
 2008SOL    HW1 7465   6.234   7.875   6.936  0.1385 -0.1782  0.3976
 2008SOL    HW2 7466   6.269   7.732   6.973 -0.2652 -1.3558 -3.2759
 2009SOL     OW 7467   7.943   4.079   5.954 -0.3547 -0.4779  0.3310
 2009SOL    HW1 7468   8.010   4.022   5.916 -1.0908 -1.2363  0.1363
 2009SOL    HW2 7469   7.936   4.152   5.893  0.7333 -0.0712  0.6777
 2010SOL     OW 7470   0.736   2.337   8.321  0.2838 -0.2882  0.5067
 2010SOL    HW1 7471   0.708   2.361   8.409 -1.3677 -0.3931  0.0258
 2010SOL    HW2 7472   0.660   2.352   8.265  0.5546 -2.3532 -0.5496
 2011SOL     OW 7473   5.894   7.321   9.979  0.1065 -0.1851 -0.2732
 2011SOL    HW1 7474   5.926   7.261  10.046 -1.2181  1.4071  1.8944
 2011SOL    HW2 7475   5.846   7.265   9.918  0.6940 -1.5815  0.4982
 2012SOL     OW 7476   2.320   6.437  11.253  0.2126  0.7278  0.2445
 2012SOL    HW1 7477   2.254   6.434  11.323  0.6538  2.7802  0.8080
 2012SOL    HW2 7478   2.277   6.483  11.181 -0.2948 -1.5177 -0.9749
 2013SOL     OW 7479   3.670   2.661   8.538  0.5829  0.1862  0.2251
 2013SOL    HW1 7480   3.643   2.742   8.582  0.6068  0.1624  0.2838
 2013SOL    HW2 7481   3.766   2.668   8.533  0.4710  1.1985 -1.7304
 2014SOL     OW 7482   6.306   2.833  10.776 -0.4624  0.6650  0.2636
 2014SOL    HW1 7483   6.362   2.808  10.702  0.3920  0.1417  1.0487
 2014SOL    HW2 7484   6.296   2.752  10.826 -0.4664  1.1446  1.0639
 2015SOL     OW 7485   3.038   4.520  10.786  0.0958  0.4317 -0.3134
 2015SOL    HW1 7486   3.088   4.482  10.859 -0.2361  0.1916 -0.2084
 2015SOL    HW2 7487   3.104   4.537  10.719  0.3915  0.5769  0.0118
 2016SOL     OW 7488   2.147   3.348   6.762 -0.0710 -0.3796  0.0702
 2016SOL    HW1 7489   2.226   3.381   6.804 -1.2718  2.3103  0.3874
 2016SOL    HW2 7490   2.084   3.419   6.770 -2.1004 -1.9055 -1.4168
 2017SOL     OW 7491   4.311   1.401   4.674 -0.5690 -0.2168  0.2268
 2017SOL    HW1 7492   4.274   1.381   4.760  1.7728 -0.6566  1.2130
 2017SOL    HW2 7493   4.281   1.489   4.654 -3.4896 -1.1368  0.1057
 2018SOL     OW 7494   3.821   2.949   3.135  0.3330  0.8636  0.6180
 2018SOL    HW1 7495   3.889   3.016   3.145  0.4721  0.5793  1.6754
 2018SOL    HW2 7496   3.860   2.884   3.077  0.5871  1.1996  0.4100
 2019SOL     OW 7497   6.155   4.230   0.619 -0.6842 -0.3048  0.4508
 2019SOL    HW1 7498   6.186   4.310   0.663  0.3035  0.6572 -1.8438
 2019SOL    HW2 7499   6.060   4.239   0.618 -0.6566  0.2557  1.2612
 2020SOL     OW 7500   2.422   3.223   7.907 -0.3783  0.4694  0.2672
 2020SOL    HW1 7501   2.396   3.182   7.824 -0.7513 -0.8499  1.0079
 2020SOL    HW2 7502   2.510   3.257   7.891 -0.0183 -0.7166 -0.3546
 2021SOL     OW 7503   3.104   1.292   8.285 -0.0585 -0.2643 -0.0144
 2021SOL    HW1 7504   3.190   1.331   8.302 -0.5499 -0.1685  2.7631
 2021SOL    HW2 7505   3.123   1.205   8.250  1.2329 -0.6495  1.5447
 2022SOL     OW 7506   6.089   1.493   3.459  0.0614  0.0186 -0.0001
 2022SOL    HW1 7507   6.061   1.507   3.368 -0.5469  0.5586  0.2596
 2022SOL    HW2 7508   6.174   1.450   3.451  1.3078  2.4340 -0.8946
 2023SOL     OW 7509   0.998   6.153   9.345  0.1517 -0.0041  0.2096
 2023SOL    HW1 7510   0.946   6.144   9.265  1.4526  0.0662 -0.6791
 2023SOL    HW2 7511   1.086   6.128   9.319  0.3468 -1.3008  1.9810
 2024SOL     OW 7512   2.585   1.169  10.688 -0.1304 -0.0969 -0.2795
 2024SOL    HW1 7513   2.611   1.151  10.779 -1.8726 -1.0642  0.0784
 2024SOL    HW2 7514   2.511   1.110  10.673 -0.2513  0.4836 -2.1502
 2025SOL     OW 7515   2.000   4.185   7.453 -0.0528 -0.1793 -0.0258
 2025SOL    HW1 7516   2.071   4.248   7.441  0.9124 -1.0920  0.7484
 2025SOL    HW2 7517   2.021   4.114   7.393 -0.8426 -0.0352 -0.4895
 2026SOL     OW 7518   4.693   3.058   5.428 -0.1746 -0.1170 -0.6618
 2026SOL    HW1 7519   4.599   3.054   5.444 -0.0401  0.7913  0.4171
 2026SOL    HW2 7520   4.733   3.063   5.515  0.9235 -1.1426 -1.0702
 2027SOL     OW 7521   4.219   6.729   3.990  0.0214 -0.3172  0.4166
 2027SOL    HW1 7522   4.142   6.786   3.985 -0.6910 -1.3792 -1.8714
 2027SOL    HW2 7523   4.291   6.782   3.957 -0.2457 -0.1411  0.1180
 2028SOL     OW 7524   7.873   5.087   4.249 -0.2311  0.2450  0.2957
 2028SOL    HW1 7525   7.844   5.173   4.220  1.3480  0.7079 -0.0482
 2028SOL    HW2 7526   7.913   5.103   4.335 -0.1712 -0.1872  0.3530
 2029SOL     OW 7527   5.680   4.033   3.091  0.0359  0.1723 -0.3102
 2029SOL    HW1 7528   5.667   4.122   3.057 -0.0448 -0.0330 -0.8217
 2029SOL    HW2 7529   5.724   3.986   3.020  1.0328  0.0824  0.3388
 2030SOL     OW 7530   1.849   3.262   9.825  0.3502 -0.6533 -0.1066
 2030SOL    HW1 7531   1.800   3.323   9.881 -1.6708 -1.5868 -0.7376
 2030SOL    HW2 7532   1.863   3.311   9.744  1.1802 -0.1025  0.3660
 2031SOL     OW 7533   0.114   3.381   9.984  0.1655 -0.3333 -0.5756
 2031SOL    HW1 7534   0.116   3.288  10.009  0.6930 -0.2888 -0.4274
 2031SOL    HW2 7535   0.110   3.380   9.889  0.2391 -0.5088 -0.5776
 2032SOL     OW 7536   2.901   0.240   3.585  0.5526 -0.2354  0.0712
 2032SOL    HW1 7537   2.889   0.317   3.529 -0.3289 -0.0888  0.4582
 2032SOL    HW2 7538   2.975   0.263   3.641  0.9826 -0.1011 -0.5333
 2033SOL     OW 7539   5.698   6.433   2.627  0.2512 -0.3899  0.2812
 2033SOL    HW1 7540   5.753   6.365   2.588  1.9883  1.0485  0.0788
 2033SOL    HW2 7541   5.625   6.442   2.566 -0.5967 -2.7513  0.8527
 2034SOL     OW 7542   5.678   2.222   4.926 -0.1255 -0.1327 -0.9196
 2034SOL    HW1 7543   5.664   2.177   4.842 -0.4265 -0.2811 -0.7913
 2034SOL    HW2 7544   5.636   2.307   4.914 -2.8182 -1.2255  0.0724
 2035SOL     OW 7545   7.328   2.196   7.585 -0.0787 -0.1473  0.1320
 2035SOL    HW1 7546   7.283   2.180   7.503  1.4676  0.1300 -0.8077
 2035SOL    HW2 7547   7.266   2.168   7.653 -2.9587  3.0968 -0.8835
 2036SOL     OW 7548   7.378   2.164   6.017  0.3128 -0.2131  0.0842
 2036SOL    HW1 7549   7.457   2.110   6.015  0.4101 -0.0690 -1.8599
 2036SOL    HW2 7550   7.410   2.252   6.035  0.4425 -0.3490  0.5408
 2037SOL     OW 7551   4.665   0.785   6.245 -0.6280 -0.0092  0.2197
 2037SOL    HW1 7552   4.753   0.821   6.237 -0.8591  0.4667 -0.1872
 2037SOL    HW2 7553   4.670   0.727   6.322 -0.1695  0.6260  0.6744
 2038SOL     OW 7554   6.028   5.121   1.553  0.4078  0.0367  0.3657
 2038SOL    HW1 7555   6.018   5.190   1.488  0.5610  1.1531  1.4826
 2038SOL    HW2 7556   5.955   5.061   1.536  1.0442 -0.2762 -1.4697
 2039SOL     OW 7557   4.252   5.265   3.888  0.4521  0.5066  0.2505
 2039SOL    HW1 7558   4.311   5.309   3.827  1.2338 -0.5311  0.2262
 2039SOL    HW2 7559   4.244   5.176   3.853 -0.3394  0.3553  0.8041
 2040SOL     OW 7560   4.488   0.189   4.074 -0.5246 -0.4793 -0.7301
 2040SOL    HW1 7561   4.573   0.157   4.046  1.1065  2.2140  0.7307
 2040SOL    HW2 7562   4.427   0.119   4.051  2.1030 -2.6873 -1.4557
 2041SOL     OW 7563   3.891   6.020   9.042  0.0624  0.4288  0.2022
 2041SOL    HW1 7564   3.959   5.957   9.065  0.1583  0.0390 -1.0601
 2041SOL    HW2 7565   3.931   6.073   8.973 -0.2695  1.4161  0.7511
 2042SOL     OW 7566   1.170   1.211   0.329 -0.4208  0.2703  0.0634
 2042SOL    HW1 7567   1.111   1.274   0.287 -1.1657  0.2505  1.0284
 2042SOL    HW2 7568   1.117   1.132   0.339  0.0506 -0.0351  0.1574
 2043SOL     OW 7569   6.337   6.770  11.171  0.2017 -0.1195  0.0773
 2043SOL    HW1 7570   6.370   6.825  11.243 -1.2600 -0.9139  1.4194
 2043SOL    HW2 7571   6.374   6.684  11.189  0.7205 -0.0904 -0.7847
 2044SOL     OW 7572   1.415   2.081  10.013  0.5531 -0.6508  0.4662
 2044SOL    HW1 7573   1.406   2.128  10.095  1.9646 -2.7232  1.9088
 2044SOL    HW2 7574   1.470   2.137   9.959  0.9966  0.0081  1.5744
 2045SOL     OW 7575   0.951   0.213   5.531 -0.4076  0.2817  0.0952
 2045SOL    HW1 7576   0.970   0.273   5.459  1.4972 -0.4513 -0.0573
 2045SOL    HW2 7577   1.006   0.136   5.514 -0.7908 -0.3938  1.7213
 2046SOL     OW 7578   2.753   2.443   8.251  0.2704 -0.0208 -0.5413
 2046SOL    HW1 7579   2.805   2.468   8.175 -1.3103 -0.8893 -2.0032
 2046SOL    HW2 7580   2.799   2.369   8.289  1.2290  0.6027 -0.4649
 2047SOL     OW 7581   7.354   6.778   6.168 -0.1653  0.5033  1.0330
 2047SOL    HW1 7582   7.295   6.714   6.207  1.5614 -0.4681  2.1819
 2047SOL    HW2 7583   7.322   6.863   6.199 -3.2166  0.4214 -1.4757
 2048SOL     OW 7584   0.354   5.298   6.698 -0.1611 -0.1132 -0.3268
 2048SOL    HW1 7585   0.350   5.233   6.769  0.6279  0.6179  0.4098
 2048SOL    HW2 7586   0.290   5.365   6.724  0.2374  0.2310 -0.2226
 2049SOL     OW 7587   4.857   6.310   8.075 -0.0272  0.2566 -0.9766
 2049SOL    HW1 7588   4.855   6.402   8.048 -1.7620  0.0634 -1.6492
 2049SOL    HW2 7589   4.875   6.261   7.995 -0.5422 -0.0521 -0.9106
 2050SOL     OW 7590   6.261   6.576   4.823  0.3314  0.3655  0.2922
 2050SOL    HW1 7591   6.205   6.624   4.762  0.0956 -0.1785  0.0827
 2050SOL    HW2 7592   6.228   6.601   4.909 -0.5460 -0.3125  0.1639
 2051SOL     OW 7593   0.054   3.242   0.017  0.3279  0.0133  0.0669
 2051SOL    HW1 7594  -0.008   3.244  -0.056  1.5267 -0.0886 -1.0028
 2051SOL    HW2 7595   0.003   3.214   0.092 -0.6178 -1.4846 -1.0889
 2052SOL     OW 7596   0.685   5.588   0.607 -0.1865  0.6381  0.2928
 2052SOL    HW1 7597   0.771   5.623   0.629 -0.9137  2.5547  0.3023
 2052SOL    HW2 7598   0.698   5.547   0.521  0.8311  0.4946  0.5000
 2053SOL     OW 7599   5.572   3.150  11.635 -0.4278 -0.0295 -0.3223
 2053SOL    HW1 7600   5.628   3.183  11.705 -1.2525 -0.6678  0.6681
 2053SOL    HW2 7601   5.628   3.089  11.587  0.5808  1.4534 -1.1284
 2054SOL     OW 7602   5.849   4.877   7.896  0.4812 -1.2523 -0.4445
 2054SOL    HW1 7603   5.793   4.832   7.831 -1.0232 -2.7520  1.7422
 2054SOL    HW2 7604   5.828   4.970   7.884  0.9728 -1.3577 -2.6892
 2055SOL     OW 7605   4.987   6.253   2.700  0.1914 -0.3499 -0.1105
 2055SOL    HW1 7606   5.010   6.344   2.719 -0.0966 -0.5425  1.2970
 2055SOL    HW2 7607   4.926   6.259   2.627  0.4270  0.5584 -0.2563
 2056SOL     OW 7608   7.474   2.404  11.741 -0.4505 -0.2480 -0.2542
 2056SOL    HW1 7609   7.529   2.328  11.719 -0.6464 -0.0368 -1.5176
 2056SOL    HW2 7610   7.387   2.382  11.707 -0.2781  0.9491 -1.5787
 2057SOL     OW 7611   4.031   6.314   5.722 -0.1618  0.4266 -0.0374
 2057SOL    HW1 7612   4.024   6.365   5.642  0.8351  0.7129  0.0575
 2057SOL    HW2 7613   3.943   6.277   5.733 -0.5120  0.9719 -0.8573
 2058SOL     OW 7614   4.420   7.942   0.987  0.2650  0.5829 -0.1941
 2058SOL    HW1 7615   4.485   7.924   1.055  0.3965  2.3772  0.2020
 2058SOL    HW2 7616   4.341   7.968   1.036  0.1934  1.3477 -0.6966
 2059SOL     OW 7617   0.417   1.876   4.666  0.4519 -0.6381  0.3134
 2059SOL    HW1 7618   0.464   1.861   4.748 -0.4120  0.3236  0.9944
 2059SOL    HW2 7619   0.332   1.912   4.692  0.4879  0.5095 -1.0371
 2060SOL     OW 7620   4.404   5.593   1.594  0.3919 -0.0268  0.1383
 2060SOL    HW1 7621   4.383   5.563   1.682  0.8247  0.2615  0.3426
 2060SOL    HW2 7622   4.374   5.684   1.592  0.0737 -0.1358 -0.1241
 2061SOL     OW 7623   1.483   3.425   9.427 -0.6326 -0.4866 -1.1261
 2061SOL    HW1 7624   1.472   3.467   9.512  0.7580 -1.8776 -0.2033
 2061SOL    HW2 7625   1.462   3.493   9.363 -0.6346  0.9141  0.3180
 2062SOL     OW 7626   4.718   6.262   8.432 -0.9282  0.2884  0.0073
 2062SOL    HW1 7627   4.731   6.357   8.431 -0.0025  0.1779  0.1964
 2062SOL    HW2 7628   4.689   6.240   8.344 -1.3894  0.7710  0.0312
 2063SOL     OW 7629   0.948   7.442   8.867 -0.1977 -0.2017 -0.0360
 2063SOL    HW1 7630   0.931   7.536   8.869  0.8484  0.0043 -0.1706
 2063SOL    HW2 7631   1.038   7.435   8.836 -0.2912 -1.2547 -0.0947
 2064SOL     OW 7632   3.599   4.868   0.187  0.1879  0.5686  0.2064
 2064SOL    HW1 7633   3.533   4.887   0.120 -1.2452  1.4233  1.7729
 2064SOL    HW2 7634   3.643   4.952   0.202 -0.0687  0.5980  0.8686
 2065SOL     OW 7635   2.795   5.621   8.086  0.0136  0.4354  0.0205
 2065SOL    HW1 7636   2.821   5.533   8.115  1.5608  0.9769  0.3973
 2065SOL    HW2 7637   2.851   5.638   8.010 -0.3314  1.0525 -0.0951
 2066SOL     OW 7638   0.752   1.481   1.147 -0.5637  0.4518 -0.3635
 2066SOL    HW1 7639   0.818   1.454   1.083 -0.6986 -0.5904 -0.0721
 2066SOL    HW2 7640   0.669   1.473   1.100 -0.5227  1.4098 -0.6138
 2067SOL     OW 7641   3.810   5.681   0.012 -0.3282  0.0375  0.1396
 2067SOL    HW1 7642   3.863   5.756   0.039 -0.5999 -0.7020  3.0681
 2067SOL    HW2 7643   3.797   5.630   0.093 -1.9790 -2.0179 -1.3039
 2068SOL     OW 7644   0.434   1.401   5.929 -0.6360  0.3173  0.6950
 2068SOL    HW1 7645   0.381   1.429   6.004 -2.1696 -1.0450  0.1722
 2068SOL    HW2 7646   0.521   1.387   5.965 -0.9295  1.3547  1.8639
 2069SOL     OW 7647   2.063   6.227   8.769  0.5237 -0.0160  0.2086
 2069SOL    HW1 7648   2.131   6.217   8.703 -0.5605 -0.6615 -0.8610
 2069SOL    HW2 7649   2.040   6.138   8.795 -1.7977 -0.0338 -1.5260
 2070SOL     OW 7650   2.411   1.977   9.869  0.0300  0.4300  0.1959
 2070SOL    HW1 7651   2.376   1.898   9.827 -0.9800  1.0409 -0.1413
 2070SOL    HW2 7652   2.424   1.952   9.960 -0.1720 -0.1629  0.0661
 2071SOL     OW 7653   4.157   2.509   6.319  0.2518 -0.1885  0.0851
 2071SOL    HW1 7654   4.072   2.552   6.331 -0.2139 -0.8597 -0.7114
 2071SOL    HW2 7655   4.216   2.555   6.378 -0.8021 -0.1080  1.0944
 2072SOL     OW 7656   7.202   7.415   8.423  0.2318 -0.1429  0.3732
 2072SOL    HW1 7657   7.201   7.326   8.388 -1.4206 -0.0106 -0.0119
 2072SOL    HW2 7658   7.164   7.406   8.510 -1.4684  0.3699 -0.2741
 2073SOL     OW 7659   4.885   2.657   0.263 -0.1406 -0.1244  0.2495
 2073SOL    HW1 7660   4.979   2.642   0.249  0.1669 -0.0858  2.0525
 2073SOL    HW2 7661   4.850   2.672   0.175  1.6124  0.2665 -0.4255
 2074SOL     OW 7662   0.161   2.952   8.213 -0.3631 -0.0026  0.0359
 2074SOL    HW1 7663   0.213   2.898   8.153 -1.0026 -0.3478 -0.2106
 2074SOL    HW2 7664   0.100   2.999   8.155  0.9461  1.8979  0.0981
 2075SOL     OW 7665   0.089   0.718   2.157 -0.0687  0.2059  0.2773
 2075SOL    HW1 7666   0.045   0.695   2.239  0.7420 -0.6069  0.5042
 2075SOL    HW2 7667   0.118   0.634   2.121  1.9281  0.7292  0.5132
 2076SOL     OW 7668   7.183   6.135   4.325 -0.0415 -0.6474  0.1446
 2076SOL    HW1 7669   7.244   6.208   4.337  0.2350 -0.9271  0.4494
 2076SOL    HW2 7670   7.176   6.095   4.411 -1.2493 -0.1562  0.2924
 2077SOL     OW 7671   3.022   0.187  10.857 -0.1565 -0.1281  0.4137
 2077SOL    HW1 7672   3.113   0.213  10.843 -0.6050  1.3754  0.1056
 2077SOL    HW2 7673   3.026   0.116  10.921  1.0483  2.1945  3.1245
 2078SOL     OW 7674   3.642   2.854   2.425 -0.3823 -0.4833  0.1480
 2078SOL    HW1 7675   3.703   2.895   2.487  0.0422  1.4523 -1.4400
 2078SOL    HW2 7676   3.561   2.902   2.436  0.2320  1.1835 -2.0108
 2079SOL     OW 7677   0.546   2.583   4.039 -0.0116  0.1980  0.0728
 2079SOL    HW1 7678   0.608   2.531   3.988  0.1223  0.2704  0.1635
 2079SOL    HW2 7679   0.460   2.559   4.003 -0.0297 -0.7805  0.7364
 2080SOL     OW 7680   2.908   7.798  12.402  0.0915  1.0695  0.0025
 2080SOL    HW1 7681   2.916   7.821  12.309  0.1700  0.5593 -0.1212
 2080SOL    HW2 7682   2.915   7.703  12.403 -3.9958  0.5792  0.0480
 2081SOL     OW 7683   0.932   4.500   9.595 -0.8979  0.0464  0.3832
 2081SOL    HW1 7684   0.959   4.558   9.524  1.0076 -2.0318 -0.7139
 2081SOL    HW2 7685   0.848   4.464   9.565 -2.0698  2.0404  1.0483
 2082SOL     OW 7686   3.047   1.813   6.129  0.5102 -0.7206 -0.3609
 2082SOL    HW1 7687   3.090   1.822   6.213 -0.9662  1.0845  0.2790
 2082SOL    HW2 7688   2.965   1.768   6.148 -0.2368  0.4685 -0.6486
 2083SOL     OW 7689   4.729   7.391   8.324 -0.4930  0.1733  0.4010
 2083SOL    HW1 7690   4.792   7.345   8.268 -0.9708 -1.1413  0.8936
 2083SOL    HW2 7691   4.774   7.471   8.350  0.3637  0.0237 -0.5245
 2084SOL     OW 7692   4.620   2.638   0.337 -0.2461  0.3325 -0.3215
 2084SOL    HW1 7693   4.624   2.627   0.432 -1.2648  0.5952 -0.2332
 2084SOL    HW2 7694   4.702   2.682   0.314 -1.1720  2.9087  0.8396
 2085SOL     OW 7695   7.167   7.105  10.488 -0.3923 -0.9378 -0.0485
 2085SOL    HW1 7696   7.188   7.061  10.570  0.0989 -2.0264 -0.7370
 2085SOL    HW2 7697   7.159   7.034  10.424 -0.6180 -0.0998 -0.9704
 2086SOL     OW 7698   4.015   4.802   0.890 -0.0294 -0.4048  0.7807
 2086SOL    HW1 7699   3.980   4.780   0.804  1.8032  1.1231 -0.4545
 2086SOL    HW2 7700   3.955   4.868   0.924 -0.4103 -0.5492  0.4012
 2087SOL     OW 7701   2.723   1.421   6.286  0.0189  0.3247  0.0355
 2087SOL    HW1 7702   2.648   1.465   6.327  0.2521  1.7031 -0.9324
 2087SOL    HW2 7703   2.689   1.389   6.202  0.3758  0.4927 -0.1745
 2088SOL     OW 7704   0.762   4.960   6.890 -0.1357 -0.0811 -0.3898
 2088SOL    HW1 7705   0.843   5.009   6.872  0.6798 -1.1106  0.2818
 2088SOL    HW2 7706   0.725   5.004   6.967 -0.0472  0.1959 -0.5026
 2089SOL     OW 7707   1.022   5.784  11.454  0.4227 -0.4355  0.2338
 2089SOL    HW1 7708   0.926   5.789  11.446  0.4751 -1.1418 -1.3468
 2089SOL    HW2 7709   1.054   5.844  11.386  1.1193 -0.1153  0.8332
 2090SOL     OW 7710   0.245   6.064  10.049 -0.3610 -0.1957 -0.2845
 2090SOL    HW1 7711   0.283   5.977  10.037 -3.0296 -1.8179  1.8115
 2090SOL    HW2 7712   0.283   6.095  10.131 -0.8255 -0.2691 -0.0352
 2091SOL     OW 7713   2.609   6.131   9.061  0.2309  0.0728 -0.4313
 2091SOL    HW1 7714   2.570   6.044   9.058  2.4738 -1.0810  0.5600
 2091SOL    HW2 7715   2.676   6.130   8.992 -0.9014  1.7049 -1.6208
 2092SOL     OW 7716   2.046   4.674   5.033 -0.3927 -0.6501 -0.3131
 2092SOL    HW1 7717   2.135   4.645   5.011 -0.5429 -0.6041 -1.0106
 2092SOL    HW2 7718   1.994   4.594   5.031 -0.3521 -0.6920  0.1945
 2093SOL     OW 7719   3.112   6.742   8.662 -0.0350 -0.3407 -0.3565
 2093SOL    HW1 7720   3.030   6.737   8.614 -0.4502  0.5413  0.2251
 2093SOL    HW2 7721   3.156   6.820   8.629 -0.8103  0.8819  1.3810
 2094SOL     OW 7722   4.985   7.285   4.490  0.1315 -0.4166 -0.1040
 2094SOL    HW1 7723   4.991   7.329   4.405  0.3887 -0.5683 -0.1662
 2094SOL    HW2 7724   4.995   7.192   4.469 -3.7630 -0.9294 -0.4035
 2095SOL     OW 7725   6.631   1.508  12.274 -0.5944  0.2361 -0.2577
 2095SOL    HW1 7726   6.600   1.595  12.249 -1.5585  0.1946  0.6950
 2095SOL    HW2 7727   6.551   1.457  12.284 -0.0508 -0.6605 -0.4391
 2096SOL     OW 7728   4.600   4.288   5.652  0.0660 -0.6421 -0.0009
 2096SOL    HW1 7729   4.630   4.270   5.564  0.7326  0.3612  0.0094
 2096SOL    HW2 7730   4.662   4.242   5.709  0.7975  0.2910 -0.0183
 2097SOL     OW 7731   6.226   4.614   1.543 -0.3064  0.2768  0.6072
 2097SOL    HW1 7732   6.269   4.698   1.556  0.9190 -0.2476  0.0960
 2097SOL    HW2 7733   6.195   4.588   1.630 -0.5314  1.1560  0.7946
 2098SOL     OW 7734   0.417   6.883   7.657 -0.1598  0.3655 -0.1339
 2098SOL    HW1 7735   0.470   6.872   7.736  0.3010  0.8182 -0.3802
 2098SOL    HW2 7736   0.402   6.977   7.650 -1.0467  0.2447 -0.0408
 2099SOL     OW 7737   6.635   1.402   4.593  0.3637  0.0786 -0.6130
 2099SOL    HW1 7738   6.553   1.384   4.548 -0.5339  2.5454 -0.0797
 2099SOL    HW2 7739   6.700   1.407   4.523 -0.2164 -0.3723 -1.1949
 2100SOL     OW 7740   3.955   2.935  10.693 -0.1280 -0.5738 -0.3150
 2100SOL    HW1 7741   4.010   2.886  10.632 -0.3171 -1.5121  0.2551
 2100SOL    HW2 7742   3.923   2.870  10.755  1.9392  0.6609  2.2491
 2101SOL     OW 7743   2.262   2.922  10.413 -0.4870  0.0843  0.2097
 2101SOL    HW1 7744   2.268   2.881  10.327 -0.3407 -0.3030  0.4023
 2101SOL    HW2 7745   2.315   3.002  10.406 -0.4831  0.0579 -0.0608
 2102SOL     OW 7746   6.736   1.055   7.960  0.3274  0.0945  0.8356
 2102SOL    HW1 7747   6.645   1.064   7.933  0.4249  0.3472  0.5928
 2102SOL    HW2 7748   6.762   1.143   7.988  0.7030  0.1764  0.2506
 2103SOL     OW 7749   1.523   3.032   1.894 -0.2466 -0.0546  0.1910
 2103SOL    HW1 7750   1.476   3.115   1.885  0.7480  0.7074  1.6093
 2103SOL    HW2 7751   1.609   3.050   1.855 -0.2006 -0.6019  0.0314
 2104SOL     OW 7752   3.853   6.960   2.798 -0.6329  0.2154 -0.3730
 2104SOL    HW1 7753   3.910   7.037   2.797 -0.5315  0.1415 -0.1656
 2104SOL    HW2 7754   3.826   6.950   2.706  0.3984 -0.2799 -0.6377
 2105SOL     OW 7755   0.054   2.086   2.462 -0.1511  0.4383  0.1807
 2105SOL    HW1 7756   0.040   2.158   2.401  0.1774 -0.7209 -1.3117
 2105SOL    HW2 7757   0.125   2.117   2.519  0.7600  0.8856 -1.1389
 2106SOL     OW 7758   6.690   7.150   9.493 -0.0586 -0.3926  0.1211
 2106SOL    HW1 7759   6.628   7.100   9.440  0.2598 -0.0810 -0.5552
 2106SOL    HW2 7760   6.668   7.241   9.478  0.9635 -0.2519 -0.6500
 2107SOL     OW 7761   3.556   3.839  10.336  0.3805 -0.0903  0.3103
 2107SOL    HW1 7762   3.557   3.898  10.261 -2.9325  0.0157  0.2321
 2107SOL    HW2 7763   3.596   3.890  10.407  1.8001  0.4900 -0.8661
 2108SOL     OW 7764   5.672   2.642   4.754  0.1771  0.2407  0.2293
 2108SOL    HW1 7765   5.604   2.694   4.712 -2.3097 -0.7010  2.7716
 2108SOL    HW2 7766   5.732   2.707   4.791 -1.6342  1.3397  1.4247
 2109SOL     OW 7767   7.853   3.768   4.754 -0.6540  0.4110 -0.1394
 2109SOL    HW1 7768   7.834   3.674   4.765  0.0384  0.2554 -0.2122
 2109SOL    HW2 7769   7.775   3.812   4.786 -0.1577 -0.1322  2.0268
 2110SOL     OW 7770   7.869   0.474   8.736 -0.3700  0.0193 -0.1855
 2110SOL    HW1 7771   7.802   0.415   8.770 -0.6238  0.1819 -0.3986
 2110SOL    HW2 7772   7.820   0.547   8.699 -0.0693  0.1961 -0.2376
 2111SOL     OW 7773   3.039   2.194   4.399  0.2957 -0.1797  0.4887
 2111SOL    HW1 7774   2.972   2.144   4.446  1.6326 -1.5844  0.9906
 2111SOL    HW2 7775   3.044   2.277   4.446 -2.4118  0.8024 -0.7382
 2112SOL     OW 7776   7.241   5.153   9.858  0.1520 -0.2747  0.1976
 2112SOL    HW1 7777   7.213   5.062   9.870 -2.9160  0.0998 -2.5685
 2112SOL    HW2 7778   7.304   5.149   9.785  0.0513 -0.1830  0.1057
 2113SOL     OW 7779   6.758   1.484   4.177 -0.0391 -0.0716 -0.2593
 2113SOL    HW1 7780   6.736   1.453   4.089 -2.4222  1.1568 -0.1613
 2113SOL    HW2 7781   6.678   1.525   4.209  0.9699  0.0966  2.2532
 2114SOL     OW 7782   5.401   7.647   8.194  0.5524  0.3676  0.1608
 2114SOL    HW1 7783   5.388   7.609   8.107 -0.2252 -0.1144  0.4739
 2114SOL    HW2 7784   5.363   7.583   8.254 -0.1038  1.2811  0.7593
 2115SOL     OW 7785   2.779   2.917   4.048 -0.6502  0.1404 -0.6827
 2115SOL    HW1 7786   2.865   2.938   4.083 -0.4899 -1.3485 -0.1226
 2115SOL    HW2 7787   2.735   3.002   4.041  0.9211  0.9586 -1.2018
 2116SOL     OW 7788   5.561   0.351  10.768  0.4872 -0.1382 -1.0692
 2116SOL    HW1 7789   5.553   0.277  10.709  1.3150 -0.9941 -0.1542
 2116SOL    HW2 7790   5.472   0.387  10.775  0.3939  0.0442 -2.8641
 2117SOL     OW 7791   0.709   3.987  10.889 -0.0291 -0.3278  0.6340
 2117SOL    HW1 7792   0.639   4.013  10.949 -1.3771 -0.7935 -0.6603
 2117SOL    HW2 7793   0.788   4.024  10.927 -0.9556  0.1462  2.2113
 2118SOL     OW 7794   5.107   2.745   9.980  0.0320 -0.1785 -0.5914
 2118SOL    HW1 7795   5.159   2.737  10.060 -0.0837 -0.0518 -0.5015
 2118SOL    HW2 7796   5.171   2.752   9.909  0.1440 -1.9503 -0.6978
 2119SOL     OW 7797   1.586   1.397   3.261  0.6875 -0.1927 -0.2417
 2119SOL    HW1 7798   1.582   1.420   3.168  2.5943  0.8517 -0.1186
 2119SOL    HW2 7799   1.647   1.461   3.299 -0.2373 -0.4441  1.7903
 2120SOL     OW 7800   2.484   1.224   2.151 -0.1030 -0.2023  0.4269
 2120SOL    HW1 7801   2.550   1.268   2.098 -0.8961 -0.5329 -0.8642
 2120SOL    HW2 7802   2.485   1.273   2.234  0.5929  0.8390 -0.1637
 2121SOL     OW 7803   5.631   7.352   8.296 -0.4762 -0.0600 -0.0050
 2121SOL    HW1 7804   5.639   7.261   8.269  0.5063 -0.0756  0.3010
 2121SOL    HW2 7805   5.714   7.393   8.270 -1.1418  0.9092 -0.7107
 2122SOL     OW 7806   3.179   6.748   9.506 -0.3262  0.5493  0.3922
 2122SOL    HW1 7807   3.086   6.760   9.525 -0.8707  1.3839 -2.3324
 2122SOL    HW2 7808   3.183   6.738   9.411  2.1854 -1.7087  0.6087
 2123SOL     OW 7809   4.201   5.243   9.871  0.1576 -0.3032 -0.4406
 2123SOL    HW1 7810   4.202   5.152   9.899  1.4369 -0.5691 -1.2763
 2123SOL    HW2 7811   4.168   5.240   9.781 -0.0543  0.0879 -0.3765
 2124SOL     OW 7812   4.479   7.357   8.984 -0.8529 -0.1031  0.7684
 2124SOL    HW1 7813   4.420   7.282   8.992  0.2585 -0.9487  1.4330
 2124SOL    HW2 7814   4.562   7.325   9.018 -0.0500  1.1051  0.0115
 2125SOL     OW 7815   7.541   0.032   9.649 -0.4706  0.3397  0.1394
 2125SOL    HW1 7816   7.451   0.040   9.681  0.1204  0.4801  1.8898
 2125SOL    HW2 7817   7.545   0.092   9.575 -1.8575  0.2101 -0.0689
 2126SOL     OW 7818   6.765   2.081   4.439  0.0543 -0.7300 -0.4044
 2126SOL    HW1 7819   6.815   2.081   4.357  1.1003  0.3025  0.2016
 2126SOL    HW2 7820   6.707   2.157   4.431 -1.0956 -1.6207 -0.8817
 2127SOL     OW 7821   6.899   2.222   5.074  0.5908  0.6870 -0.0721
 2127SOL    HW1 7822   6.829   2.176   5.028  1.9022 -0.0670 -1.3958
 2127SOL    HW2 7823   6.860   2.247   5.158 -1.6643  1.4677 -1.2536
 2128SOL     OW 7824   7.938   1.785   7.914 -0.8953 -0.2692  0.1820
 2128SOL    HW1 7825   7.882   1.799   7.990  0.2542  0.2706  0.9672
 2128SOL    HW2 7826   7.917   1.696   7.884 -1.2049 -0.5803  1.2808
 2129SOL     OW 7827   2.530   5.662   1.830 -0.0773 -0.1086  0.0891
 2129SOL    HW1 7828   2.562   5.574   1.849 -1.0950 -0.3030  1.0360
 2129SOL    HW2 7829   2.570   5.717   1.897  1.1757  0.3152 -0.9665
 2130SOL     OW 7830   5.529   7.027  10.633 -0.8974 -0.4977  0.7029
 2130SOL    HW1 7831   5.455   6.971  10.610  1.6464 -3.2856 -1.7638
 2130SOL    HW2 7832   5.545   7.079  10.554 -0.3549  0.2119  1.2645
 2131SOL     OW 7833   3.332   0.671  11.508  0.1719  0.0178  0.2386
 2131SOL    HW1 7834   3.363   0.725  11.435  0.9650 -0.1748  0.4205
 2131SOL    HW2 7835   3.245   0.706  11.528 -0.5516 -0.6448 -1.5054
 2132SOL     OW 7836   3.770   0.563   7.563  0.2450 -0.5010 -0.0684
 2132SOL    HW1 7837   3.859   0.553   7.597  0.6816  0.4466 -0.8697
 2132SOL    HW2 7838   3.734   0.475   7.563  0.2508 -0.5835  2.6947
 2133SOL     OW 7839   1.246   6.794   2.513 -0.1964 -0.2716  0.0206
 2133SOL    HW1 7840   1.336   6.764   2.522 -0.4329 -1.6754 -1.7234
 2133SOL    HW2 7841   1.246   6.881   2.551  2.2439  0.3492 -1.2073
 2134SOL     OW 7842   3.505   6.121   8.822 -0.6219  0.7068 -0.1899
 2134SOL    HW1 7843   3.524   6.057   8.754 -0.7830  1.9536 -1.4705
 2134SOL    HW2 7844   3.532   6.079   8.904 -0.0563 -0.6887 -1.0607
 2135SOL     OW 7845   1.440   3.596   6.442  0.6111  1.0829 -0.2670
 2135SOL    HW1 7846   1.371   3.624   6.501  0.4437  2.4728 -1.0736
 2135SOL    HW2 7847   1.499   3.545   6.497 -0.4674  0.8163  0.6806
 2136SOL     OW 7848   1.837   0.828   6.592 -0.1525 -0.1766  0.3798
 2136SOL    HW1 7849   1.805   0.738   6.590  1.1407 -0.6496 -1.6052
 2136SOL    HW2 7850   1.764   0.880   6.559  0.5977 -1.1274 -3.1832
 2137SOL     OW 7851   4.480   1.007   8.777  0.1755 -0.0640 -0.7707
 2137SOL    HW1 7852   4.516   0.944   8.839 -0.4647 -0.2229 -0.5515
 2137SOL    HW2 7853   4.537   1.083   8.785 -0.2886  0.1778  0.5139
 2138SOL     OW 7854   7.472   1.813   7.040  0.4751  0.3415  0.5318
 2138SOL    HW1 7855   7.458   1.867   6.962  0.8265 -0.3467 -0.0286
 2138SOL    HW2 7856   7.431   1.861   7.111  0.8710  1.3935  0.0652
 2139SOL     OW 7857   6.203   2.884   8.505 -0.0704 -0.3425 -0.7361
 2139SOL    HW1 7858   6.161   2.968   8.524  2.6613  0.8306  0.6335
 2139SOL    HW2 7859   6.151   2.820   8.553 -1.9161  0.5828 -1.3857
 2140SOL     OW 7860   2.954   1.546   9.794  0.3448  0.5749 -0.2498
 2140SOL    HW1 7861   3.007   1.467   9.778  0.4259  0.5288  0.2312
 2140SOL    HW2 7862   2.919   1.569   9.708  0.2384 -0.0499 -0.3811
 2141SOL     OW 7863   0.347   5.801   8.546  0.5387  0.0889  0.9586
 2141SOL    HW1 7864   0.305   5.873   8.594 -0.5264  1.9395 -2.4265
 2141SOL    HW2 7865   0.295   5.724   8.567 -1.2072  1.2630  1.1443
 2142SOL     OW 7866   5.272   0.487   8.778  0.2943  0.2275  0.8398
 2142SOL    HW1 7867   5.365   0.480   8.797  0.1397 -1.3970  1.0937
 2142SOL    HW2 7868   5.233   0.410   8.819 -1.3968  1.6664  2.0699
 2143SOL     OW 7869   0.058   4.768   1.489  0.1353  0.4778 -0.0897
 2143SOL    HW1 7870   0.059   4.709   1.565  0.6153 -1.5398 -1.5642
 2143SOL    HW2 7871  -0.029   4.757   1.451  0.3783  0.3608 -0.6213
 2144SOL     OW 7872   3.781   0.103   1.804 -0.0730  0.4740 -0.7980
 2144SOL    HW1 7873   3.820   0.169   1.860 -0.8132 -0.0422  0.3677
 2144SOL    HW2 7874   3.815   0.020   1.838  0.4785  0.2201 -1.9405
 2145SOL     OW 7875   1.801   6.921   7.168  0.1165 -0.5282 -0.1635
 2145SOL    HW1 7876   1.773   6.986   7.232  0.1301 -0.9411  0.2674
 2145SOL    HW2 7877   1.777   6.958   7.083 -1.0111 -0.5145  0.1473
 2146SOL     OW 7878   6.986   1.026   8.862  0.2969  0.1603  0.7226
 2146SOL    HW1 7879   6.990   1.115   8.828 -0.2012 -0.5279 -1.3469
 2146SOL    HW2 7880   6.892   1.009   8.874  0.3848 -0.0834  1.0685
 2147SOL     OW 7881   3.143   1.682   2.321 -0.1059 -0.3020 -0.8868
 2147SOL    HW1 7882   3.174   1.738   2.250  0.6745 -1.0975 -1.1885
 2147SOL    HW2 7883   3.101   1.742   2.382 -0.0394  0.5003 -1.6165
 2148SOL     OW 7884   1.446   6.141   9.006 -0.5409 -0.0219 -0.1288
 2148SOL    HW1 7885   1.449   6.193   9.086 -0.9642  0.2831 -0.3061
 2148SOL    HW2 7886   1.530   6.160   8.963  0.2743 -1.2221  0.8656
 2149SOL     OW 7887   0.757   5.270   3.007  0.2400  0.2371 -0.1438
 2149SOL    HW1 7888   0.784   5.295   3.096  2.4654  0.2837 -0.7915
 2149SOL    HW2 7889   0.800   5.186   2.992 -0.5639 -0.0333 -0.9952
 2150SOL     OW 7890   7.723   2.543   0.572 -0.1701  0.0869 -0.4819
 2150SOL    HW1 7891   7.800   2.562   0.625  0.8199  1.0965 -2.2044
 2150SOL    HW2 7892   7.731   2.449   0.552  0.7533  0.2410 -0.8652
 2151SOL     OW 7893   0.170   6.673   8.461 -0.0986 -0.2879 -0.0542
 2151SOL    HW1 7894   0.205   6.694   8.374  2.8920 -1.3536  0.7595
 2151SOL    HW2 7895   0.198   6.583   8.477 -1.2243 -0.3675  1.7441
 2152SOL     OW 7896   0.585   4.131   6.639 -0.6819  0.6333 -0.1783
 2152SOL    HW1 7897   0.641   4.208   6.638 -1.8102  1.5169  0.8108
 2152SOL    HW2 7898   0.555   4.125   6.730 -2.0294  0.1119 -0.6306
 2153SOL     OW 7899   2.908   2.206   8.302  0.3825 -0.4428  0.3196
 2153SOL    HW1 7900   2.947   2.263   8.368  0.5134 -1.7901  1.4714
 2153SOL    HW2 7901   2.979   2.146   8.277 -0.3197 -1.4968  0.7793
 2154SOL     OW 7902   4.708   4.798   7.188  0.5129 -0.1554  0.0225
 2154SOL    HW1 7903   4.722   4.711   7.151 -0.5601 -1.1262  1.7705
 2154SOL    HW2 7904   4.639   4.836   7.133  0.5515 -0.6515 -0.3747
 2155SOL     OW 7905   0.503   7.754   2.566 -0.8258  0.7283  0.4015
 2155SOL    HW1 7906   0.476   7.845   2.575 -1.5743  0.8244 -2.0559
 2155SOL    HW2 7907   0.421   7.705   2.557 -0.3943 -0.0422  0.4853
 2156SOL     OW 7908   3.099   0.408   5.179 -0.1524 -0.6207 -0.0127
 2156SOL    HW1 7909   3.185   0.419   5.221  0.1101 -0.6930 -0.5253
 2156SOL    HW2 7910   3.100   0.469   5.106 -0.3921 -0.8925 -0.2455
 2157SOL     OW 7911   3.784   7.340   7.563  0.0933  0.4547 -0.0998
 2157SOL    HW1 7912   3.740   7.280   7.623  1.5008 -1.6030 -1.0051
 2157SOL    HW2 7913   3.719   7.358   7.495  0.0816 -1.3558 -0.6398
 2158SOL     OW 7914   3.687   5.201  11.510 -0.4214  0.1377  0.5412
 2158SOL    HW1 7915   3.648   5.191  11.597 -0.3627 -2.7495  0.3350
 2158SOL    HW2 7916   3.618   5.174  11.449  0.2916 -0.1402 -0.1572
 2159SOL     OW 7917   2.136   4.896  12.420 -0.0111  0.1288 -0.8406
 2159SOL    HW1 7918   2.071   4.966  12.420 -1.0434 -0.7457  1.0986
 2159SOL    HW2 7919   2.094   4.824  12.373 -1.6430 -1.3033  2.4134
 2160SOL     OW 7920   1.816   5.499   9.150  0.2977  0.0212 -0.0379
 2160SOL    HW1 7921   1.760   5.565   9.108 -1.2667 -0.9966  0.3732
 2160SOL    HW2 7922   1.903   5.540   9.153  0.2465  0.6481 -3.1094
 2161SOL     OW 7923   7.565   1.366   1.864  0.3367 -0.4235 -0.1329
 2161SOL    HW1 7924   7.604   1.444   1.903 -0.0510  0.9034 -2.2608
 2161SOL    HW2 7925   7.501   1.399   1.801 -2.2463 -2.4870  1.1430
 2162SOL     OW 7926   3.094   6.886   0.522  0.3337 -0.2696  0.3699
 2162SOL    HW1 7927   3.100   6.809   0.578 -1.5408  0.8230  2.2192
 2162SOL    HW2 7928   3.023   6.938   0.560 -0.7228  0.8093 -2.7389
 2163SOL     OW 7929   1.295   5.646   6.993  0.2662 -0.1233 -1.1139
 2163SOL    HW1 7930   1.368   5.584   6.990  0.9855  0.7187 -1.7547
 2163SOL    HW2 7931   1.317   5.712   6.927 -1.0476  0.1956 -1.2704
 2164SOL     OW 7932   7.555   0.786   5.630 -0.1524 -0.0156 -0.0115
 2164SOL    HW1 7933   7.508   0.870   5.633 -0.2920 -0.0835 -0.2258
 2164SOL    HW2 7934   7.645   0.808   5.653 -0.2235  0.1679  0.0955
 2165SOL     OW 7935   0.615   0.353  10.139 -0.4016  0.1743  0.2362
 2165SOL    HW1 7936   0.630   0.341  10.233  0.3796  0.9236  0.2209
 2165SOL    HW2 7937   0.539   0.410  10.134 -3.3009 -3.3582  0.3214
 2166SOL     OW 7938   5.677   4.940   6.058 -0.1712  0.0200 -0.3539
 2166SOL    HW1 7939   5.694   5.025   6.098 -0.7357  0.5304 -1.1782
 2166SOL    HW2 7940   5.673   4.879   6.132  2.2779  0.3267  0.1214
 2167SOL     OW 7941   6.180   1.833   8.417  0.1226  0.3729 -0.4222
 2167SOL    HW1 7942   6.199   1.911   8.365  0.1562 -0.5738 -1.8597
 2167SOL    HW2 7943   6.117   1.784   8.365  1.7793 -1.6559 -0.6445
 2168SOL     OW 7944   0.972   6.046  11.329 -0.1112  0.8733  0.8703
 2168SOL    HW1 7945   0.884   6.050  11.364 -0.2722 -0.7765  0.7384
 2168SOL    HW2 7946   1.000   6.137  11.323 -2.3331  1.5497 -0.4476
 2169SOL     OW 7947   7.840   2.470   5.176 -0.4434 -0.0902  0.2832
 2169SOL    HW1 7948   7.899   2.410   5.130 -1.5580 -1.3422  0.4435
 2169SOL    HW2 7949   7.874   2.475   5.265 -0.0159 -0.0103  0.1194
 2170SOL     OW 7950   6.713   2.023   2.782 -0.3287  0.2355 -0.9104
 2170SOL    HW1 7951   6.771   2.071   2.841 -0.9105 -0.3141  0.1437
 2170SOL    HW2 7952   6.771   1.992   2.713  1.0534 -1.7739  0.9846
 2171SOL     OW 7953   2.711   6.227   0.623 -0.0851 -0.6045 -0.3387
 2171SOL    HW1 7954   2.728   6.165   0.552  0.1354 -0.8468 -0.0754
 2171SOL    HW2 7955   2.651   6.180   0.681 -0.6514 -0.2267 -0.6113
 2172SOL     OW 7956   5.573   1.748   4.579  0.6745  0.4282 -0.3365
 2172SOL    HW1 7957   5.526   1.811   4.524  0.9677  0.5404 -0.4617
 2172SOL    HW2 7958   5.535   1.663   4.555  0.6828  0.4936 -0.5901
 2173SOL     OW 7959   0.367   1.725  11.600 -0.2567 -0.5067 -0.6828
 2173SOL    HW1 7960   0.355   1.813  11.566 -2.2448 -1.0345 -1.4595
 2173SOL    HW2 7961   0.286   1.706  11.647  1.6078 -0.5417  2.8549
 2174SOL     OW 7962   7.602   2.074   5.588 -0.1279 -0.0913  0.3531
 2174SOL    HW1 7963   7.646   2.012   5.530 -0.7508 -1.0394  0.8709
 2174SOL    HW2 7964   7.602   2.031   5.674 -1.8295 -0.0084  0.4270
 2175SOL     OW 7965   2.850   0.937   2.525  0.0255 -0.1255 -0.0956
 2175SOL    HW1 7966   2.871   0.876   2.595 -0.7140  1.1504  1.2836
 2175SOL    HW2 7967   2.923   0.999   2.524 -1.2167  1.4571  1.4422
 2176SOL     OW 7968   6.357   4.092   0.474  0.4727  0.2201  0.1361
 2176SOL    HW1 7969   6.290   4.126   0.533  1.1256  2.5638 -0.3452
 2176SOL    HW2 7970   6.334   4.000   0.461 -0.1326 -0.1727  3.3509
 2177SOL     OW 7971   2.782   0.558   4.469 -0.2301  1.0814  0.1257
 2177SOL    HW1 7972   2.730   0.493   4.516  0.9263  0.8635  1.1608
 2177SOL    HW2 7973   2.868   0.518   4.461  0.4188  2.3593  0.5120
 2178SOL     OW 7974   3.239   2.589   0.678  0.3480 -0.1502  0.0184
 2178SOL    HW1 7975   3.255   2.679   0.650  1.1947  0.0704  1.1300
 2178SOL    HW2 7976   3.325   2.548   0.679  0.3970 -0.1317  2.2115
 2179SOL     OW 7977   2.405   4.875   9.279  0.1634 -0.3933 -0.2681
 2179SOL    HW1 7978   2.476   4.882   9.215  1.2994 -2.5097  0.6580
 2179SOL    HW2 7979   2.347   4.948   9.259  2.2085  0.9580 -1.5538
 2180SOL     OW 7980   6.100   4.404   8.124 -0.4379 -0.3566 -0.2719
 2180SOL    HW1 7981   6.127   4.353   8.201  0.9637  0.5092 -0.1521
 2180SOL    HW2 7982   6.139   4.490   8.138 -1.6751  0.3745 -1.1003
 2181SOL     OW 7983   2.778   6.569   7.004 -1.2426 -0.3626 -0.1596
 2181SOL    HW1 7984   2.725   6.525   6.937 -1.4307 -1.1800  0.4984
 2181SOL    HW2 7985   2.752   6.526   7.086  1.1322 -1.4617  0.0816
 2182SOL     OW 7986   2.276   1.509   1.939  0.0214 -0.1913 -0.2834
 2182SOL    HW1 7987   2.222   1.436   1.971 -0.2120  0.2316  0.3085
 2182SOL    HW2 7988   2.212   1.574   1.910  0.2302 -0.4886 -1.4670
 2183SOL     OW 7989   5.301   4.784  12.155  0.2916  0.4242  0.1135
 2183SOL    HW1 7990   5.287   4.708  12.099 -0.8155  1.7366 -1.5156
 2183SOL    HW2 7991   5.393   4.779  12.180  0.5073 -0.8569 -0.8363
 2184SOL     OW 7992   6.741   3.334   0.344 -0.2520  0.5215 -0.0850
 2184SOL    HW1 7993   6.704   3.261   0.393 -0.6379  0.8333  0.0971
 2184SOL    HW2 7994   6.834   3.315   0.337 -0.3689 -0.0344 -0.1242
 2185SOL     OW 7995   5.488   2.559  12.124 -0.5270  0.3489  0.1683
 2185SOL    HW1 7996   5.419   2.500  12.153 -0.2967  0.7753  1.6564
 2185SOL    HW2 7997   5.447   2.612  12.055 -1.0136 -0.8545 -0.4974
 2186SOL     OW 7998   0.638   1.830   1.811 -0.0528  0.1704 -0.2201
 2186SOL    HW1 7999   0.587   1.876   1.878 -1.9639 -0.6635 -1.0322
 2186SOL    HW2 8000   0.684   1.761   1.859  0.3134  0.9182  0.5284
 2187SOL     OW 8001   4.519   7.818   3.748 -0.0945  0.3093 -0.0585
 2187SOL    HW1 8002   4.498   7.741   3.694 -1.0831  1.0307 -0.7447
 2187SOL    HW2 8003   4.515   7.891   3.687  1.3157  0.8776  0.4893
 2188SOL     OW 8004   0.479   0.108   6.582 -0.8830 -0.0529  0.1147
 2188SOL    HW1 8005   0.404   0.166   6.569 -1.1113 -0.2579  0.5023
 2188SOL    HW2 8006   0.442   0.020   6.576 -0.3521 -0.2075 -1.6826
 2189SOL     OW 8007   6.936   2.674  10.207  0.6207  0.1008  0.5263
 2189SOL    HW1 8008   6.841   2.659  10.208  0.1955  1.7783 -2.5022
 2189SOL    HW2 8009   6.971   2.601  10.155  0.6152  0.7811 -0.4645
 2190SOL     OW 8010   0.916   0.372   1.722 -0.3138 -0.2413 -0.1481
 2190SOL    HW1 8011   0.970   0.314   1.668 -0.1007  2.5673 -3.1855
 2190SOL    HW2 8012   0.828   0.364   1.686 -0.9866 -0.9574  1.5093
 2191SOL     OW 8013   5.034   5.276   5.666 -0.3960  0.2272 -0.2841
 2191SOL    HW1 8014   4.959   5.307   5.718 -0.6857 -0.9757  0.0496
 2191SOL    HW2 8015   5.111   5.308   5.714 -0.6679  1.6117 -0.7148
 2192SOL     OW 8016   0.474   5.372  11.203 -0.1030 -0.3110  0.2382
 2192SOL    HW1 8017   0.478   5.370  11.108 -3.9770 -0.3140 -0.0991
 2192SOL    HW2 8018   0.393   5.325  11.225 -1.2606  2.6398  3.2471
 2193SOL     OW 8019   0.978   1.345   5.112  0.3352 -0.1037  0.4657
 2193SOL    HW1 8020   1.045   1.283   5.142  0.6320 -0.1848 -0.3241
 2193SOL    HW2 8021   0.963   1.403   5.187  1.1311 -0.2218  0.7268
 2194SOL     OW 8022   0.112   7.075   1.704 -0.0988 -0.0289  0.5043
 2194SOL    HW1 8023   0.028   7.035   1.682 -0.4661  1.2773 -0.5949
 2194SOL    HW2 8024   0.127   7.139   1.635  1.1048  0.7766  1.4721
 2195SOL     OW 8025   5.440   1.234   3.717 -0.3490  0.7590 -0.1961
 2195SOL    HW1 8026   5.410   1.325   3.723  0.2690  0.9459  0.2115
 2195SOL    HW2 8027   5.523   1.233   3.764 -0.2200  0.0339 -0.4184
 2196SOL     OW 8028   0.442   3.533   2.290  0.0248  0.4217 -0.2740
 2196SOL    HW1 8029   0.416   3.491   2.373  0.5771  0.0320 -0.2936
 2196SOL    HW2 8030   0.483   3.463   2.240  1.6271  1.1317 -0.0169
 2197SOL     OW 8031   5.795   1.084   7.373  0.1688  0.0292 -0.7866
 2197SOL    HW1 8032   5.763   1.124   7.454  0.5317 -1.3951  0.1137
 2197SOL    HW2 8033   5.778   0.990   7.385  1.1563 -0.3207 -1.9299
 2198SOL     OW 8034   7.084   1.734  11.509  0.2488  0.7292  0.0964
 2198SOL    HW1 8035   6.999   1.749  11.552 -0.1653 -0.2716 -0.3627
 2198SOL    HW2 8036   7.070   1.759  11.418  1.0520  2.5770  0.4347
 2199SOL     OW 8037   4.825   7.127   4.702  0.1064 -0.0253 -0.4992
 2199SOL    HW1 8038   4.868   7.202   4.661  0.5001 -1.7926 -3.6855
 2199SOL    HW2 8039   4.736   7.127   4.666 -0.2434 -0.4749  0.3379
 2200SOL     OW 8040   0.549   2.295  11.956  0.1855 -0.0483 -0.0891
 2200SOL    HW1 8041   0.465   2.251  11.945  0.0638 -0.1915  1.2648
 2200SOL    HW2 8042   0.562   2.299  12.051  0.5098  2.2017 -0.1637
 2201SOL     OW 8043   4.987   7.901   9.825 -0.0675  0.0187  0.0642
 2201SOL    HW1 8044   4.996   7.957   9.901 -1.8565  1.5780 -0.7872
 2201SOL    HW2 8045   5.046   7.940   9.759 -1.2475  0.9169 -0.4990
 2202SOL     OW 8046   5.019   2.636   2.663 -0.4959  0.1381 -0.1458
 2202SOL    HW1 8047   5.114   2.640   2.674 -0.3698 -1.8264 -0.0988
 2202SOL    HW2 8048   4.988   2.724   2.685  1.1988  0.4960  1.0267
 2203SOL     OW 8049   1.944   4.813   2.820  0.5141 -0.4424  0.0677
 2203SOL    HW1 8050   1.867   4.866   2.800  0.6573 -0.8991 -1.8841
 2203SOL    HW2 8051   2.009   4.875   2.853 -0.6861 -0.0718  1.8957
 2204SOL     OW 8052   1.972   5.348  10.060  0.0937  0.3953  0.4516
 2204SOL    HW1 8053   1.888   5.391  10.077 -0.1680  0.1081 -0.0722
 2204SOL    HW2 8054   2.033   5.387  10.123 -0.2762  1.0925  0.3852
 2205SOL     OW 8055   1.168   0.077   4.468  0.0419  0.3947  0.1907
 2205SOL    HW1 8056   1.097   0.015   4.448 -0.2035  0.8175 -0.2648
 2205SOL    HW2 8057   1.201   0.103   4.382  1.2122 -0.3120  0.4083
 2206SOL     OW 8058   7.145   0.354   0.538  0.0946 -0.2807  0.4132
 2206SOL    HW1 8059   7.103   0.428   0.582 -0.5538 -0.0250 -0.6133
 2206SOL    HW2 8060   7.089   0.279   0.559 -0.3772 -0.1072 -0.1820
 2207SOL     OW 8061   5.358   6.496   5.423  0.1344  0.3354 -0.1957
 2207SOL    HW1 8062   5.330   6.571   5.372 -0.0036  0.4925  0.1065
 2207SOL    HW2 8063   5.313   6.506   5.507  0.2613  0.0166 -0.0867
 2208SOL     OW 8064   5.954   3.558  12.049 -0.2561 -0.5537 -0.1035
 2208SOL    HW1 8065   5.908   3.573  11.967 -0.1877 -0.1295 -0.0703
 2208SOL    HW2 8066   5.889   3.576  12.117  0.2555  1.2399 -0.0297
 2209SOL     OW 8067   4.104   7.158   2.108  0.2713  0.3237  0.3830
 2209SOL    HW1 8068   4.092   7.212   2.030 -2.4010  1.7210  1.5781
 2209SOL    HW2 8069   4.035   7.092   2.102  0.3912  0.1043  1.2439
 2210SOL     OW 8070   7.279   7.739   7.238 -0.0559  0.1085 -0.2500
 2210SOL    HW1 8071   7.328   7.791   7.302  1.5630 -1.2052 -0.3651
 2210SOL    HW2 8072   7.194   7.784   7.231  0.0909  0.8783  2.0297
 2211SOL     OW 8073   4.719   5.458   4.428 -0.0720  0.1968 -0.5124
 2211SOL    HW1 8074   4.748   5.374   4.464 -0.5215 -0.0507 -0.7145
 2211SOL    HW2 8075   4.799   5.500   4.398 -0.0296 -1.0885 -2.3838
 2212SOL     OW 8076   6.057   0.767   2.411  0.1065  0.0960 -0.2925
 2212SOL    HW1 8077   6.102   0.703   2.467  0.8392  0.6098 -0.2843
 2212SOL    HW2 8078   6.065   0.850   2.457 -1.8134  0.0268  0.2388
 2213SOL     OW 8079   4.474   0.262   2.000 -0.4584  0.0651  0.7589
 2213SOL    HW1 8080   4.400   0.260   1.939 -0.8772  0.8830  1.2320
 2213SOL    HW2 8081   4.551   0.267   1.944 -0.8947  2.2970  0.2836
 2214SOL     OW 8082   4.931   5.495   6.969  0.1326  0.6929  0.3260
 2214SOL    HW1 8083   5.019   5.493   7.005  0.2828  0.0841 -0.0706
 2214SOL    HW2 8084   4.924   5.415   6.917  0.0085  1.6855 -1.2226
 2215SOL     OW 8085   7.953   6.288  10.542  0.3611 -0.3156  0.0568
 2215SOL    HW1 8086   7.993   6.313  10.625  0.4370 -1.8302  0.5006
 2215SOL    HW2 8087   8.025   6.293  10.479  0.3389  0.6828  0.0992
 2216SOL     OW 8088   1.964   1.107   5.437 -0.2557 -0.1090 -0.3236
 2216SOL    HW1 8089   1.980   1.131   5.528  1.4066 -0.5989 -0.4483
 2216SOL    HW2 8090   1.930   1.187   5.397  0.6525  0.6355  0.3387
 2217SOL     OW 8091   0.226   7.051  12.080 -0.2583 -0.1200 -0.7850
 2217SOL    HW1 8092   0.207   7.143  12.101  1.6611 -0.0215  0.7950
 2217SOL    HW2 8093   0.288   7.055  12.007 -0.5666 -0.1888 -1.0531
 2218SOL     OW 8094   3.448   2.701   0.096  0.2271 -0.7424 -0.0325
 2218SOL    HW1 8095   3.473   2.792   0.079 -1.1142 -0.3842 -0.1617
 2218SOL    HW2 8096   3.393   2.705   0.174  1.8964 -1.7347  1.2735
 2219SOL     OW 8097   4.313   6.408   3.697  0.4765  0.2479  0.1077
 2219SOL    HW1 8098   4.337   6.316   3.690 -0.8171  0.0145 -4.6007
 2219SOL    HW2 8099   4.396   6.454   3.710  1.5087 -1.3933 -0.3840
 2220SOL     OW 8100   3.340   3.418   0.374 -0.4122  0.3457 -0.3622
 2220SOL    HW1 8101   3.309   3.456   0.292 -0.2938 -2.5420 -1.8723
 2220SOL    HW2 8102   3.434   3.404   0.360  0.2631  2.5194  1.4757
 2221SOL     OW 8103   2.698   5.829  11.257 -0.2050 -0.1847 -0.1196
 2221SOL    HW1 8104   2.751   5.775  11.197  0.1983  0.9702 -0.8463
 2221SOL    HW2 8105   2.743   5.821  11.341 -0.0705 -0.8654 -0.2463
 2222SOL     OW 8106   7.142   2.960   3.521  0.4481 -0.2215  0.1679
 2222SOL    HW1 8107   7.220   2.911   3.495  0.3099 -1.2092  1.4663
 2222SOL    HW2 8108   7.101   2.906   3.589 -1.4869  0.1649 -0.6005
 2223SOL     OW 8109   2.596   0.497   4.662 -0.2727  0.0297  0.1373
 2223SOL    HW1 8110   2.609   0.587   4.693 -0.0685  0.5826 -1.4511
 2223SOL    HW2 8111   2.614   0.443   4.738  1.1513  1.2727  0.7517
 2224SOL     OW 8112   0.446   4.520   7.507  0.1215  0.7870 -0.9371
 2224SOL    HW1 8113   0.435   4.497   7.600 -0.4527  0.1037 -1.1642
 2224SOL    HW2 8114   0.398   4.603   7.497 -0.3193  0.5545 -0.7539
 2225SOL     OW 8115   5.554   4.153   2.284  0.0784 -0.1379 -0.3553
 2225SOL    HW1 8116   5.539   4.121   2.195  2.5926 -2.9143  0.0597
 2225SOL    HW2 8117   5.482   4.116   2.335 -0.1741 -0.3434 -0.8551
 2226SOL     OW 8118   7.027   3.133   8.960  0.5116 -0.1599 -0.5594
 2226SOL    HW1 8119   7.000   3.106   8.872 -0.8370  0.3265 -0.3302
 2226SOL    HW2 8120   7.086   3.207   8.946  1.5193 -1.0369 -1.0788
 2227SOL     OW 8121   2.682   1.514   0.575  0.1801 -0.0941  0.1297
 2227SOL    HW1 8122   2.712   1.561   0.497  1.9549 -1.3652 -0.0293
 2227SOL    HW2 8123   2.708   1.570   0.648 -0.3899  0.5358 -0.1485
 2228SOL     OW 8124   4.995   0.571  10.742  0.1679  0.5783 -0.0044
 2228SOL    HW1 8125   5.062   0.537  10.683 -0.3038  0.8322 -0.6968
 2228SOL    HW2 8126   5.044   0.622  10.806  0.7991 -0.7093  0.5682
 2229SOL     OW 8127   6.699   5.869  11.975 -0.2287  0.1184 -0.0527
 2229SOL    HW1 8128   6.755   5.810  12.026 -0.5066 -0.5583 -0.5154
 2229SOL    HW2 8129   6.666   5.814  11.903 -2.8416  0.0020  1.1330
 2230SOL     OW 8130   4.063   4.454   2.612 -0.1389 -0.3066  0.0008
 2230SOL    HW1 8131   4.136   4.466   2.552 -0.1119  0.1305  0.1180
 2230SOL    HW2 8132   3.985   4.451   2.556  0.0849 -2.3565 -0.2734
 2231SOL     OW 8133   3.662   0.651  10.181 -0.5961  0.0410 -0.1507
 2231SOL    HW1 8134   3.650   0.725  10.121 -0.7285 -0.7633 -1.1334
 2231SOL    HW2 8135   3.725   0.594  10.137 -0.4586 -0.4208  0.6220
 2232SOL     OW 8136   4.759   2.231   6.109 -0.1540 -0.1893  0.0448
 2232SOL    HW1 8137   4.714   2.312   6.129  0.1846  0.1929 -0.6742
 2232SOL    HW2 8138   4.817   2.216   6.184  1.3268  1.3672 -0.7062
 2233SOL     OW 8139   4.089   6.401   7.837 -0.1586 -0.0000  0.1829
 2233SOL    HW1 8140   4.003   6.424   7.801 -0.4304 -1.3461 -0.0947
 2233SOL    HW2 8141   4.100   6.461   7.911 -1.6143 -0.1851  0.5869
 2234SOL     OW 8142   5.772   2.685   7.466 -0.0357  0.4136  0.6611
 2234SOL    HW1 8143   5.843   2.739   7.502 -0.3101  0.7326  0.7356
 2234SOL    HW2 8144   5.786   2.598   7.504  1.0462  0.1447 -0.3109
 2235SOL     OW 8145   7.043   1.427   0.463 -0.2472 -0.0179  0.0119
 2235SOL    HW1 8146   7.118   1.404   0.517 -0.1510 -0.5157 -0.3355
 2235SOL    HW2 8147   7.046   1.367   0.389  0.2442  1.3528 -1.1183
 2236SOL     OW 8148   5.583   3.509   3.671  0.2499 -0.2863 -0.1768
 2236SOL    HW1 8149   5.517   3.445   3.698  0.3810 -0.9135 -1.2906
 2236SOL    HW2 8150   5.533   3.590   3.658 -0.2543 -0.6695 -0.6717
 2237SOL     OW 8151   4.979   0.997   3.904  0.0523 -0.3752 -0.1548
 2237SOL    HW1 8152   4.996   0.913   3.946  0.9506 -2.5629 -4.2981
 2237SOL    HW2 8153   5.066   1.033   3.887 -0.3130  0.9416  0.6318
 2238SOL     OW 8154   1.504   7.786   3.466  0.2009 -0.1021 -0.0085
 2238SOL    HW1 8155   1.573   7.762   3.528  0.8145  0.2526 -0.5380
 2238SOL    HW2 8156   1.435   7.721   3.480 -0.8218  1.4221  2.8483
 2239SOL     OW 8157   1.166   2.977   5.396 -0.0618 -0.0451  0.3321
 2239SOL    HW1 8158   1.106   2.908   5.424 -0.1803 -0.1502 -0.1672
 2239SOL    HW2 8159   1.110   3.049   5.369  0.0538  0.1013  0.4763
 2240SOL     OW 8160   0.705   3.762   5.845 -0.1607 -0.5423  0.3649
 2240SOL    HW1 8161   0.755   3.809   5.912  0.4000 -1.0704  0.3243
 2240SOL    HW2 8162   0.764   3.692   5.816 -0.3846 -0.3062 -0.6980
 2241SOL     OW 8163   2.265   3.609  11.035  0.0630 -0.4461  0.5165
 2241SOL    HW1 8164   2.260   3.647  10.948 -0.6188 -1.5652  0.0425
 2241SOL    HW2 8165   2.298   3.679  11.091 -2.2630  1.2161 -0.0800
 2242SOL     OW 8166   4.287   3.069   9.492  0.3208  0.1671 -0.7169
 2242SOL    HW1 8167   4.228   3.145   9.491 -0.5539 -0.4567  0.7436
 2242SOL    HW2 8168   4.234   2.998   9.456  1.1120  0.1842 -1.9967
 2243SOL     OW 8169   4.730   7.543   6.897 -0.0543  0.4814  0.3398
 2243SOL    HW1 8170   4.704   7.489   6.822  1.1466 -0.6700  0.7058
 2243SOL    HW2 8171   4.666   7.614   6.898 -0.9988 -0.2877 -0.8726
 2244SOL     OW 8172   4.088   0.964   0.276 -0.2234 -0.0006  0.0886
 2244SOL    HW1 8173   4.008   0.920   0.246 -0.5091  0.7019 -0.1891
 2244SOL    HW2 8174   4.075   0.974   0.370 -0.3863 -0.0377  0.0714
 2245SOL     OW 8175   7.730   0.783  12.427 -0.0292 -0.2399  0.6264
 2245SOL    HW1 8176   7.759   0.865  12.468  0.0245  0.4462 -0.7450
 2245SOL    HW2 8177   7.643   0.803  12.393 -1.5407 -1.7974  3.2491
 2246SOL     OW 8178   6.186   4.021  10.828 -0.0342 -0.0873 -0.2535
 2246SOL    HW1 8179   6.152   4.072  10.754 -1.1775 -0.5881 -0.0969
 2246SOL    HW2 8180   6.156   3.932  10.811  0.5668 -0.3946  0.2953
 2247SOL     OW 8181   4.698   7.738   0.235 -0.4730  0.4343 -0.1016
 2247SOL    HW1 8182   4.747   7.785   0.302 -1.2688  1.2609 -0.0770
 2247SOL    HW2 8183   4.615   7.714   0.277 -0.2821 -0.5400 -0.2745
 2248SOL     OW 8184   0.058   2.790   5.927  0.1348 -0.7280  0.2169
 2248SOL    HW1 8185  -0.023   2.777   5.878 -0.9128 -0.0728  1.7174
 2248SOL    HW2 8186   0.050   2.878   5.964  1.2028 -0.9421  0.9846
 2249SOL     OW 8187   3.285   4.139   4.451 -0.1352 -0.1909  0.5212
 2249SOL    HW1 8188   3.310   4.077   4.520  0.3799  1.4895  1.8955
 2249SOL    HW2 8189   3.200   4.173   4.479  0.5143  1.2151  0.8749
 2250SOL     OW 8190   6.035   7.295   9.158  0.5174 -0.7374 -0.0248
 2250SOL    HW1 8191   6.115   7.284   9.209 -0.9988 -0.5812  2.5710
 2250SOL    HW2 8192   5.972   7.236   9.199 -1.4928  1.1915 -0.1405
 2251SOL     OW 8193   6.306   5.831   4.864  0.2013  0.4299  0.3960
 2251SOL    HW1 8194   6.314   5.777   4.785  0.5516  2.1589 -0.8156
 2251SOL    HW2 8195   6.214   5.821   4.890 -0.2994  0.9288 -1.0831
 2252SOL     OW 8196   1.340   3.505  12.321 -0.1284 -0.6025 -0.0852
 2252SOL    HW1 8197   1.329   3.423  12.369 -1.0981 -0.3924  0.0734
 2252SOL    HW2 8198   1.308   3.486  12.233 -2.7658  0.2392  0.5990
 2253SOL     OW 8199   5.821   6.125   3.570  0.4542 -0.1771  0.3235
 2253SOL    HW1 8200   5.823   6.217   3.542  3.5011 -0.5831 -1.2111
 2253SOL    HW2 8201   5.821   6.075   3.488 -1.0745 -1.5862  1.1346
 2254SOL     OW 8202   2.027   1.653   4.462  0.0909  0.2646 -0.1429
 2254SOL    HW1 8203   1.933   1.645   4.450  0.1436 -0.1998 -0.2567
 2254SOL    HW2 8204   2.037   1.706   4.541 -0.2650  2.1883 -1.3060
 2255SOL     OW 8205   5.663   0.048  11.928 -0.2920  0.1705 -0.4294
 2255SOL    HW1 8206   5.571   0.037  11.904 -0.3935 -2.5178  0.7936
 2255SOL    HW2 8207   5.707  -0.028  11.890  0.5862 -0.9210  2.4890
 2256SOL     OW 8208   5.973   6.163   0.382  0.1810 -0.3630 -0.7453
 2256SOL    HW1 8209   5.981   6.255   0.406 -1.4423 -0.4010  0.0841
 2256SOL    HW2 8210   6.060   6.126   0.397  0.6148  0.8316 -0.2208
 2257SOL     OW 8211   4.854   2.991  12.305 -0.0686  1.1292 -0.2857
 2257SOL    HW1 8212   4.767   2.954  12.289  1.4356 -2.6829 -0.9041
 2257SOL    HW2 8213   4.868   2.979  12.399  0.3511  0.2221 -0.4553
 2258SOL     OW 8214   6.811   3.553  10.847 -0.5922 -0.2640 -0.9801
 2258SOL    HW1 8215   6.886   3.559  10.788  2.0486  1.9288  2.2527
 2258SOL    HW2 8216   6.756   3.628  10.825  0.5092  0.6880 -0.5614
 2259SOL     OW 8217   1.092   2.560  10.774  0.0238  0.0695 -0.0661
 2259SOL    HW1 8218   1.135   2.640  10.744  1.2407 -1.2589 -2.0800
 2259SOL    HW2 8219   1.036   2.588  10.847  0.6763  2.6612 -0.4901
 2260SOL     OW 8220   1.007   2.733   0.347 -0.6200  0.3492 -0.4369
 2260SOL    HW1 8221   0.991   2.753   0.439  0.0086  2.2504 -0.6877
 2260SOL    HW2 8222   1.056   2.651   0.348 -1.2766 -0.0466  0.8643
 2261SOL     OW 8223   4.859   4.557   7.231  0.2620 -0.0330  0.1847
 2261SOL    HW1 8224   4.880   4.570   7.324  0.6525  2.1063 -0.1574
 2261SOL    HW2 8225   4.926   4.607   7.185 -0.0538 -0.9085 -1.2655
 2262SOL     OW 8226   0.050   4.849   5.080 -0.3525 -0.3187 -0.0057
 2262SOL    HW1 8227   0.035   4.807   5.164  0.4542  1.5763  1.1601
 2262SOL    HW2 8228   0.072   4.777   5.020 -0.4303 -1.6593  1.5143
 2263SOL     OW 8229   6.906   7.561  10.555 -0.0187  0.1255  0.1422
 2263SOL    HW1 8230   6.982   7.557  10.497 -1.0365 -1.2406 -1.1720
 2263SOL    HW2 8231   6.878   7.652  10.552  1.5634  0.6688  0.6912
 2264SOL     OW 8232   4.461   5.576   6.906 -0.6429  0.1278 -0.3625
 2264SOL    HW1 8233   4.398   5.504   6.904 -0.4907 -0.0067 -0.3134
 2264SOL    HW2 8234   4.525   5.550   6.972  0.4492 -0.5687 -1.6497
 2265SOL     OW 8235   4.728   0.959   2.912 -0.0548 -0.4250  0.5016
 2265SOL    HW1 8236   4.727   0.896   2.984 -0.2444 -1.2988 -0.2495
 2265SOL    HW2 8237   4.733   0.906   2.833  0.6577  0.5366 -0.1231
 2266SOL     OW 8238   4.857   4.873   3.345  0.2813 -0.0730  0.1460
 2266SOL    HW1 8239   4.817   4.786   3.342  0.2436 -0.0319 -1.9409
 2266SOL    HW2 8240   4.951   4.856   3.353  0.2591 -0.3164 -0.0962
 2267SOL     OW 8241   3.320   0.134  10.109 -0.5165  0.4244  0.0295
 2267SOL    HW1 8242   3.302   0.127  10.015 -0.1429 -2.6285  0.0850
 2267SOL    HW2 8243   3.260   0.202  10.140 -0.8892  1.2698 -2.3312
 2268SOL     OW 8244   1.500   6.212  11.830 -0.5166  0.2069  0.1089
 2268SOL    HW1 8245   1.555   6.290  11.820 -0.5021  0.3095  0.8674
 2268SOL    HW2 8246   1.511   6.164  11.748 -0.5045  0.9866 -0.3529
 2269SOL     OW 8247   5.623   0.768   9.952  0.1496  0.5270  0.2530
 2269SOL    HW1 8248   5.629   0.753  10.046  1.4147  0.1684  0.1446
 2269SOL    HW2 8249   5.693   0.714   9.915  0.1728  1.2577 -0.8199
 2270SOL     OW 8250   7.311   5.501   1.960  0.9212 -0.3348 -0.5600
 2270SOL    HW1 8251   7.342   5.588   1.985  1.5625 -0.3771 -1.1676
 2270SOL    HW2 8252   7.364   5.440   2.011  0.3476 -0.3741  0.0007
 2271SOL     OW 8253   5.306   6.918  12.022 -0.1432  0.8463  0.3993
 2271SOL    HW1 8254   5.390   6.877  12.004  0.0254  0.5613  1.6929
 2271SOL    HW2 8255   5.320   7.011  12.004 -0.1444  0.5527 -1.2661
 2272SOL     OW 8256   5.198   0.912   7.204  0.1135  0.0439  0.3615
 2272SOL    HW1 8257   5.198   0.827   7.248  0.2551 -1.2367 -1.9853
 2272SOL    HW2 8258   5.105   0.933   7.192  0.0427 -1.0475 -1.2813
 2273SOL     OW 8259   7.545   5.418   2.130 -0.0013 -0.2258 -0.1054
 2273SOL    HW1 8260   7.593   5.486   2.082  1.7054 -3.5388 -3.5642
 2273SOL    HW2 8261   7.605   5.394   2.201  0.1904  0.5844  0.0240
 2274SOL     OW 8262   1.752   6.401   9.910 -0.3199  0.2385 -0.4195
 2274SOL    HW1 8263   1.757   6.336   9.981 -1.1807  0.3075 -0.2888
 2274SOL    HW2 8264   1.664   6.437   9.917 -0.3457  0.3830 -1.4132
 2275SOL     OW 8265   5.910   3.079   5.642  0.5476 -0.1383 -0.3798
 2275SOL    HW1 8266   5.967   3.059   5.717  1.7502 -0.6415 -1.3812
 2275SOL    HW2 8267   5.876   2.993   5.615  0.9718 -0.0982 -1.0536
 2276SOL     OW 8268   4.089   2.799   6.677  0.5297 -0.4153  0.1045
 2276SOL    HW1 8269   4.177   2.831   6.658  1.3737 -1.8254  1.3753
 2276SOL    HW2 8270   4.055   2.769   6.593  1.7022 -0.8303 -0.2439
 2277SOL     OW 8271   2.026   7.288   6.186 -0.4536  0.0838 -0.3936
 2277SOL    HW1 8272   2.104   7.294   6.131  0.9894  0.3568  1.5483
 2277SOL    HW2 8273   1.989   7.376   6.186 -1.0169 -0.1370 -1.6341
 2278SOL     OW 8274   5.989   6.507   1.126 -0.0744 -0.8542  0.4009
 2278SOL    HW1 8275   6.027   6.424   1.153 -1.0945 -1.2763  0.5942
 2278SOL    HW2 8276   5.932   6.532   1.199 -0.9124 -0.7390 -0.2716
 2279SOL     OW 8277   5.313   4.653   5.099  0.0514  0.1398  0.5165
 2279SOL    HW1 8278   5.334   4.736   5.057 -1.8766 -0.5941 -2.1132
 2279SOL    HW2 8279   5.352   4.587   5.043 -1.5417 -0.8490  0.5306
 2280SOL     OW 8280   2.793   1.586   8.582  0.2416  0.6016  0.4243
 2280SOL    HW1 8281   2.814   1.665   8.532  2.0368 -0.6014 -0.8473
 2280SOL    HW2 8282   2.871   1.569   8.634  0.8137 -1.5022 -0.9892
 2281SOL     OW 8283   7.619   1.289   3.618  0.0311  0.2658  0.0830
 2281SOL    HW1 8284   7.654   1.290   3.707  2.1560 -2.9327 -0.5515
 2281SOL    HW2 8285   7.564   1.211   3.614  1.3906 -0.7080 -1.7789
 2282SOL     OW 8286   0.481   0.678   0.984 -0.1641 -0.3081  0.0911
 2282SOL    HW1 8287   0.542   0.750   1.000  0.8113 -1.0196 -0.3720
 2282SOL    HW2 8288   0.532   0.599   0.999 -0.8779 -0.9210 -0.6291
 2283SOL     OW 8289   3.515   6.981   5.613 -0.3134  0.4681 -0.6362
 2283SOL    HW1 8290   3.561   7.060   5.584 -0.3079  0.7217  0.0459
 2283SOL    HW2 8291   3.572   6.944   5.681  0.3985 -0.9242 -1.9302
 2284SOL     OW 8292   0.717   2.049   1.636 -0.2749  0.1531  0.2093
 2284SOL    HW1 8293   0.757   2.002   1.563  0.2664 -1.4562  1.4931
 2284SOL    HW2 8294   0.701   1.982   1.702 -2.2553  1.2832  0.9663
 2285SOL     OW 8295   7.341   1.439   4.864  0.1261 -0.1083 -0.5352
 2285SOL    HW1 8296   7.306   1.357   4.828 -0.2754 -0.8817  1.4200
 2285SOL    HW2 8297   7.273   1.504   4.847 -0.5137 -0.6874 -0.2626
 2286SOL     OW 8298   0.949   5.481   0.844  0.2548 -0.2388 -0.1815
 2286SOL    HW1 8299   0.985   5.411   0.899  1.8803  1.8714  1.6600
 2286SOL    HW2 8300   0.856   5.485   0.868 -0.1699 -2.4467 -1.2103
 2287SOL     OW 8301   2.460   1.713   8.095 -0.4546 -0.1617 -0.0991
 2287SOL    HW1 8302   2.552   1.737   8.107 -0.4067  0.5141 -1.6228
 2287SOL    HW2 8303   2.441   1.734   8.004 -2.1364 -0.2473  0.1947
 2288SOL     OW 8304   2.010   3.771   1.179  0.2759  0.9249 -0.2773
 2288SOL    HW1 8305   1.969   3.722   1.108  2.1475  0.3682 -1.0278
 2288SOL    HW2 8306   2.059   3.706   1.229  1.7609  1.7955 -0.5342
 2289SOL     OW 8307   7.154   4.613   6.132 -0.0728 -0.2309 -0.1028
 2289SOL    HW1 8308   7.234   4.561   6.126 -0.9156 -1.9911  2.3890
 2289SOL    HW2 8309   7.178   4.688   6.186  1.0023  1.9586 -3.2706
 2290SOL     OW 8310   0.724   1.122   1.875 -0.0725 -0.4508 -0.2406
 2290SOL    HW1 8311   0.755   1.137   1.964 -0.4398 -0.3426 -0.1280
 2290SOL    HW2 8312   0.690   1.032   1.876 -0.3908 -0.3327 -0.1758
 2291SOL     OW 8313   0.501   2.102   7.105  0.1356 -0.1221  1.0099
 2291SOL    HW1 8314   0.419   2.148   7.124 -0.4375 -0.6013 -0.1709
 2291SOL    HW2 8315   0.527   2.135   7.019  1.4214  0.3287  1.5448
 2292SOL     OW 8316   3.439   6.556   1.854  0.2563 -0.4214 -0.3744
 2292SOL    HW1 8317   3.426   6.604   1.772  1.1751  1.3789  0.4791
 2292SOL    HW2 8318   3.534   6.557   1.867  0.0100  1.2835  1.7830
 2293SOL     OW 8319   0.551   7.254   6.814  0.3096  0.6154  0.0639
 2293SOL    HW1 8320   0.482   7.222   6.755  0.1698  0.9288  0.0597
 2293SOL    HW2 8321   0.533   7.210   6.897  0.4200  0.2865 -0.0817
 2294SOL     OW 8322   4.074   2.470   4.011  0.6579  0.3965  0.0719
 2294SOL    HW1 8323   4.023   2.550   4.011  1.2351  0.7820 -0.6861
 2294SOL    HW2 8324   4.119   2.469   4.096  0.5512  0.8114  0.1302
 2295SOL     OW 8325   7.623   3.797   9.017  1.1668 -0.5168 -0.1391
 2295SOL    HW1 8326   7.664   3.711   9.025 -0.4586 -1.3736 -0.5502
 2295SOL    HW2 8327   7.567   3.791   8.939  1.2877  1.0336 -0.3875
 2296SOL     OW 8328   3.996   0.263   1.158  0.3520 -0.2439  0.4363
 2296SOL    HW1 8329   4.046   0.345   1.159 -0.5726  0.3981 -1.2151
 2296SOL    HW2 8330   3.923   0.278   1.217 -0.7223  0.7794 -1.0912
 2297SOL     OW 8331   1.633   6.837  10.583  0.3468 -0.5002  0.3815
 2297SOL    HW1 8332   1.694   6.883  10.640  0.9135 -0.1119 -0.5178
 2297SOL    HW2 8333   1.681   6.759  10.555  0.5508 -0.0379 -0.5716
 2298SOL     OW 8334   1.111   7.528  11.593  0.1692  0.1007 -0.6382
 2298SOL    HW1 8335   1.161   7.457  11.635  0.6942 -0.1755 -1.7073
 2298SOL    HW2 8336   1.167   7.557  11.522  0.6677  2.6492  0.6853
 2299SOL     OW 8337   2.121   5.282   7.353 -0.5759 -0.2081  0.4663
 2299SOL    HW1 8338   2.081   5.199   7.327 -0.9683  0.6333 -1.8818
 2299SOL    HW2 8339   2.201   5.287   7.301 -0.0872  0.4716  1.2654
 2300SOL     OW 8340   5.203   1.919   3.768  1.0371 -0.2124 -0.4226
 2300SOL    HW1 8341   5.215   1.880   3.681  2.0054  0.2174 -0.4916
 2300SOL    HW2 8342   5.270   1.987   3.774  1.5198 -0.7636  0.9696
 2301SOL     OW 8343   5.817   3.494   3.507 -0.3312  0.8368 -0.6383
 2301SOL    HW1 8344   5.826   3.588   3.490 -2.5822  1.1420 -0.5277
 2301SOL    HW2 8345   5.738   3.487   3.561 -0.2922 -1.1303 -0.7621
 2302SOL     OW 8346   0.513   7.123   9.639  0.4174  0.1973 -0.3594
 2302SOL    HW1 8347   0.583   7.130   9.703 -0.0680 -2.1593  0.5391
 2302SOL    HW2 8348   0.540   7.181   9.567  0.7616  3.3008  2.0499
 2303SOL     OW 8349   4.863   6.283   1.202 -0.4841 -0.2098 -1.0636
 2303SOL    HW1 8350   4.878   6.196   1.164 -0.5031 -0.6365 -0.1265
 2303SOL    HW2 8351   4.941   6.300   1.254  1.0855  1.8059 -3.7903
 2304SOL     OW 8352   2.523   5.900   3.996  0.6153  0.4453  0.7082
 2304SOL    HW1 8353   2.612   5.877   3.970  0.4081  1.3790 -0.9646
 2304SOL    HW2 8354   2.502   5.978   3.945 -2.0262 -1.1373 -0.8621
 2305SOL     OW 8355   3.088   7.545   4.776  0.4380  0.1080  0.6026
 2305SOL    HW1 8356   3.105   7.525   4.868  1.7592 -0.2545  0.2923
 2305SOL    HW2 8357   3.069   7.460   4.737 -0.5463  0.3107  0.6070
 2306SOL     OW 8358   4.640   2.637   0.599  0.6178  0.4054 -0.1663
 2306SOL    HW1 8359   4.609   2.587   0.674  0.5275 -1.2871 -1.2750
 2306SOL    HW2 8360   4.684   2.713   0.637 -1.4057  0.8126  1.5210
 2307SOL     OW 8361   4.214   1.482  12.101 -0.2558 -0.3366  0.0577
 2307SOL    HW1 8362   4.226   1.391  12.128 -1.0091 -0.2567  0.6835
 2307SOL    HW2 8363   4.206   1.478  12.005  2.0427 -0.6592 -0.1892
 2308SOL     OW 8364   3.386   0.774   1.786  0.2259  0.1568  0.5795
 2308SOL    HW1 8365   3.475   0.789   1.816  0.4498 -0.5862  0.2977
 2308SOL    HW2 8366   3.375   0.834   1.712  0.2043  0.8452  1.1311
 2309SOL     OW 8367   4.261   5.330   3.171  0.2828  0.5782 -0.2484
 2309SOL    HW1 8368   4.221   5.416   3.160 -0.6924  0.2877  0.8404
 2309SOL    HW2 8369   4.321   5.340   3.245  0.8067  0.5270 -0.6593
 2310SOL     OW 8370   4.189   0.649   9.857  0.1685 -0.7174 -0.3466
 2310SOL    HW1 8371   4.205   0.678   9.768 -0.5921 -0.0726 -0.2728
 2310SOL    HW2 8372   4.108   0.599   9.853  0.9087 -1.9761 -0.2799
 2311SOL     OW 8373   1.796   6.107  10.007  0.1505  0.4522  0.7232
 2311SOL    HW1 8374   1.754   6.063  10.081  1.9619 -0.0574  1.5164
 2311SOL    HW2 8375   1.740   6.087   9.932 -1.9544  1.2973  1.9757
 2312SOL     OW 8376   1.953   1.047   4.535 -0.1415 -0.1267 -0.2224
 2312SOL    HW1 8377   1.973   1.093   4.453 -1.1655  0.9036  0.0739
 2312SOL    HW2 8378   1.890   0.979   4.509 -0.5671  0.2834 -0.2889
 2313SOL     OW 8379   3.085   1.896   2.504 -0.5996 -0.1036 -0.3716
 2313SOL    HW1 8380   3.035   1.895   2.586 -0.8655 -0.9597 -0.5328
 2313SOL    HW2 8381   3.083   1.987   2.476 -2.0220 -0.0910 -0.3237
 2314SOL     OW 8382   1.600   5.929  10.841  0.3355  0.3137  0.2678
 2314SOL    HW1 8383   1.639   5.971  10.917  1.6749 -2.6966  1.4016
 2314SOL    HW2 8384   1.651   5.848  10.829 -3.2382 -2.0698 -0.4411
 2315SOL     OW 8385   6.029   6.103   5.463 -0.2265 -0.3322 -0.1024
 2315SOL    HW1 8386   5.971   6.065   5.529  0.7131 -2.0635 -0.2145
 2315SOL    HW2 8387   6.032   6.038   5.393 -0.7486  1.2165 -1.6259
 2316SOL     OW 8388   2.366   1.302   4.700  0.4988  0.2111  0.6092
 2316SOL    HW1 8389   2.390   1.303   4.793  0.5073  0.1748  0.6071
 2316SOL    HW2 8390   2.273   1.326   4.699 -0.7506 -3.9415  0.9715
 2317SOL     OW 8391   6.718   7.838   8.365 -0.2584 -0.0545  0.2612
 2317SOL    HW1 8392   6.737   7.800   8.280  0.0159 -0.0019  0.2987
 2317SOL    HW2 8393   6.768   7.785   8.428  0.5689  0.6879  0.2585
 2318SOL     OW 8394   5.437   6.336   2.469 -0.1479  0.5731  0.0285
 2318SOL    HW1 8395   5.381   6.373   2.538  0.5170  0.1431  0.8097
 2318SOL    HW2 8396   5.444   6.407   2.405  0.1616  1.4082  0.9511
 2319SOL     OW 8397   1.529   4.816   3.230  0.2147 -0.6831  1.1481
 2319SOL    HW1 8398   1.481   4.849   3.154 -1.2334 -0.7297  2.0048
 2319SOL    HW2 8399   1.621   4.818   3.203 -0.0505  1.3819  0.1566
 2320SOL     OW 8400   0.717   7.580   8.663 -0.8949  0.0967  0.8778
 2320SOL    HW1 8401   0.730   7.636   8.586 -0.5755 -2.6158 -1.2280
 2320SOL    HW2 8402   0.787   7.605   8.723 -0.2670  1.3792 -0.3212
 2321SOL     OW 8403   4.315   5.062  11.015 -0.1426  0.3074  0.6685
 2321SOL    HW1 8404   4.300   5.009  11.093  0.2277 -0.2009  0.4009
 2321SOL    HW2 8405   4.410   5.059  11.002 -0.3313 -1.0033 -0.7406
 2322SOL     OW 8406   6.687   3.820   9.969  0.3939  0.3482 -0.0175
 2322SOL    HW1 8407   6.646   3.789   9.889  2.1144  1.5347 -1.4376
 2322SOL    HW2 8408   6.688   3.916   9.961 -0.7302  0.6146  2.1370
 2323SOL     OW 8409   3.046   2.738   7.325 -0.4712 -0.4030  0.3229
 2323SOL    HW1 8410   3.113   2.671   7.335  0.7985  0.4002 -2.0372
 2323SOL    HW2 8411   2.998   2.736   7.408  0.2676 -3.3439  0.7892
 2324SOL     OW 8412   6.164   2.068   6.787 -0.5324 -0.2422  0.1294
 2324SOL    HW1 8413   6.171   2.061   6.882  0.9086 -0.5719  0.0286
 2324SOL    HW2 8414   6.251   2.096   6.758 -0.8853 -0.3334 -1.1050
 2325SOL     OW 8415   3.457   0.907   5.327  0.5468 -0.3103  0.2327
 2325SOL    HW1 8416   3.489   0.926   5.239  0.4837  0.4614  0.3688
 2325SOL    HW2 8417   3.364   0.931   5.324  0.5677 -0.1796  0.5325
 2326SOL     OW 8418   4.252   7.433  12.283 -0.0901  0.8452  0.0231
 2326SOL    HW1 8419   4.306   7.358  12.259  0.0707  0.9561  0.0357
 2326SOL    HW2 8420   4.212   7.461  12.200 -2.0146 -0.6878  0.3659
 2327SOL     OW 8421   1.598   6.250   5.456 -0.1657  0.1645 -0.6988
 2327SOL    HW1 8422   1.567   6.167   5.421 -0.1889 -0.8771  1.5989
 2327SOL    HW2 8423   1.521   6.307   5.454  0.0847  0.5207 -3.1776
 2328SOL     OW 8424   2.621   5.096   7.878  0.2132  0.6954 -0.3451
 2328SOL    HW1 8425   2.647   5.012   7.840  0.4756  0.8080 -0.4147
 2328SOL    HW2 8426   2.532   5.111   7.846  0.5387  0.9279 -1.1520
 2329SOL     OW 8427   1.969   1.176   3.240 -0.7991  0.5105 -0.3055
 2329SOL    HW1 8428   1.976   1.259   3.288 -0.7359  0.6121 -0.4896
 2329SOL    HW2 8429   1.883   1.180   3.199 -0.3122  1.0236 -1.3071
 2330SOL     OW 8430   2.900   5.333   6.303 -0.1450 -0.0845  0.1155
 2330SOL    HW1 8431   2.834   5.264   6.297 -0.9078  0.3518  2.4217
 2330SOL    HW2 8432   2.974   5.292   6.347 -0.1732  0.2720  0.5010
 2331SOL     OW 8433   2.486   3.313   4.394  0.2669  0.5863 -0.4138
 2331SOL    HW1 8434   2.478   3.400   4.434  0.9526  0.2835  0.4275
 2331SOL    HW2 8435   2.573   3.313   4.354 -0.0346  0.5456 -1.0762
 2332SOL     OW 8436   0.555   6.110  11.280 -0.1521  0.1856 -0.2410
 2332SOL    HW1 8437   0.510   6.091  11.362  2.0074 -2.2159  0.4941
 2332SOL    HW2 8438   0.485   6.110  11.214 -1.5401 -0.8263  1.1788
 2333SOL     OW 8439   5.429   1.369   3.087  0.3743  0.2518 -0.1118
 2333SOL    HW1 8440   5.476   1.377   3.170 -1.4535  1.1769  0.8930
 2333SOL    HW2 8441   5.387   1.283   3.092  2.7419 -1.1275 -1.5327
 2334SOL     OW 8442   6.315   3.985  11.964  0.1667  0.2411 -0.2834
 2334SOL    HW1 8443   6.326   4.079  11.977 -0.5823  0.3225 -0.2217
 2334SOL    HW2 8444   6.394   3.947  12.002  1.0424  0.9109 -1.3473
 2335SOL     OW 8445   5.504   5.111   4.396  0.0009 -0.1923  0.1367
 2335SOL    HW1 8446   5.545   5.103   4.310 -0.4342  1.4184 -0.2731
 2335SOL    HW2 8447   5.539   5.193   4.432 -2.8299  1.3661 -0.3167
 2336SOL     OW 8448   6.733   5.146   5.463 -0.4641  0.6222  0.4237
 2336SOL    HW1 8449   6.678   5.180   5.392 -0.9776  0.6775  0.8486
 2336SOL    HW2 8450   6.780   5.072   5.423 -0.7869  0.6223  0.0395
 2337SOL     OW 8451   5.762   2.456   1.793  0.3902  0.1689 -0.1961
 2337SOL    HW1 8452   5.830   2.485   1.732 -0.9357  0.3249 -1.6582
 2337SOL    HW2 8453   5.747   2.364   1.770  0.5613 -0.0486  0.5565
 2338SOL     OW 8454   2.805   5.140   2.318 -0.9156  0.1242  0.2455
 2338SOL    HW1 8455   2.817   5.045   2.328  1.6283  0.4131  0.3722
 2338SOL    HW2 8456   2.847   5.161   2.235 -0.7945  1.2654  0.5898
 2339SOL     OW 8457   6.859   1.516   9.933 -0.1769 -0.0459  0.1475
 2339SOL    HW1 8458   6.898   1.602   9.947  1.1029 -0.5529 -0.2038
 2339SOL    HW2 8459   6.830   1.489  10.021  0.7797  0.1046  0.5208
 2340SOL     OW 8460   3.140   4.648   8.036  0.3608  0.4228  0.0554
 2340SOL    HW1 8461   3.158   4.558   8.008 -0.4720  0.3844 -0.3916
 2340SOL    HW2 8462   3.217   4.673   8.087 -1.1688 -2.1322  4.2023
 2341SOL     OW 8463   7.894   5.989  11.953  0.1932 -0.0672 -0.0917
 2341SOL    HW1 8464   7.806   6.012  11.924  1.2075  0.6833 -2.7972
 2341SOL    HW2 8465   7.947   6.065  11.932  1.8452 -1.2322 -0.3022
 2342SOL     OW 8466   2.703   4.612   8.639  0.1960  0.1351  0.2177
 2342SOL    HW1 8467   2.628   4.566   8.675  1.4491 -0.7452  1.8012
 2342SOL    HW2 8468   2.756   4.544   8.597  0.3919  0.6607 -0.4103
 2343SOL     OW 8469   0.171   6.302   5.237  0.4113  0.3685  0.8977
 2343SOL    HW1 8470   0.166   6.209   5.259 -0.0201  0.4825  1.2850
 2343SOL    HW2 8471   0.145   6.306   5.145 -1.4455  0.3183  1.3940
 2344SOL     OW 8472   5.824   5.807   4.593  0.3048  0.4279 -0.3790
 2344SOL    HW1 8473   5.844   5.866   4.520  0.8751 -0.9953 -1.4018
 2344SOL    HW2 8474   5.909   5.787   4.631  0.2139 -0.4814 -0.6419
 2345SOL     OW 8475   6.382   7.389   1.932  0.0314  0.6135 -0.2118
 2345SOL    HW1 8476   6.310   7.330   1.956  0.0999 -0.2049 -1.8647
 2345SOL    HW2 8477   6.449   7.373   1.997 -0.9831  0.8361  0.9241
 2346SOL     OW 8478   1.324   1.453   3.361  0.1227 -0.1200  0.1470
 2346SOL    HW1 8479   1.327   1.500   3.444 -1.6757 -1.3277  0.9614
 2346SOL    HW2 8480   1.409   1.409   3.355  1.5787  2.5723 -0.3159
 2347SOL     OW 8481   0.218   6.966   6.882 -0.1198  0.0795 -0.0368
 2347SOL    HW1 8482   0.191   7.053   6.911 -0.2658  0.4302 -1.1755
 2347SOL    HW2 8483   0.149   6.939   6.821 -0.6428 -1.2986  1.0842
 2348SOL     OW 8484   3.491   0.107   6.996 -0.2801 -0.1025 -0.5944
 2348SOL    HW1 8485   3.583   0.083   7.005 -0.0235  1.3408  1.3361
 2348SOL    HW2 8486   3.490   0.174   6.927  0.1438 -0.0200 -0.5234
 2349SOL     OW 8487   7.472   2.634   0.282  0.1239  0.0801 -0.0144
 2349SOL    HW1 8488   7.530   2.559   0.296 -0.2359 -0.5638 -1.7012
 2349SOL    HW2 8489   7.386   2.595   0.266 -0.7101  0.9960  1.8566
 2350SOL     OW 8490   7.897   6.894   5.436  0.3289 -0.6900 -0.6587
 2350SOL    HW1 8491   7.966   6.849   5.389  0.7433 -2.6077  1.6056
 2350SOL    HW2 8492   7.884   6.843   5.516 -2.2851  0.7598 -0.0085
 2351SOL     OW 8493   7.540   3.200   6.420  0.2475 -0.2227 -0.3861
 2351SOL    HW1 8494   7.590   3.137   6.366  1.6309 -1.2770  1.9504
 2351SOL    HW2 8495   7.597   3.216   6.496 -1.6572  1.0797  0.8388
 2352SOL     OW 8496   5.844   4.683   1.522 -0.2861 -0.1167 -0.3125
 2352SOL    HW1 8497   5.878   4.708   1.436 -1.0061  2.3214  0.0583
 2352SOL    HW2 8498   5.792   4.604   1.505 -0.0061  0.0281 -2.0137
 2353SOL     OW 8499   5.868   4.673   6.875  0.1028 -0.2379  1.0216
 2353SOL    HW1 8500   5.827   4.587   6.864  0.3341 -0.4570  1.8076
 2353SOL    HW2 8501   5.835   4.724   6.802  1.0617 -1.4079 -0.2917
 2354SOL     OW 8502   0.012   1.546  10.167  0.8698  0.4521  0.3277
 2354SOL    HW1 8503   0.074   1.494  10.117  0.2380 -0.6254  0.6290
 2354SOL    HW2 8504  -0.030   1.602  10.103  1.9583  1.0088  0.0832
 2355SOL     OW 8505   6.485   0.839   2.960  0.1487  0.1674  0.4904
 2355SOL    HW1 8506   6.565   0.890   2.970 -0.2346  0.7773  0.4992
 2355SOL    HW2 8507   6.484   0.816   2.867 -1.1509  2.7222 -0.2301
 2356SOL     OW 8508   2.733   2.918   6.644 -0.1638 -0.0449  0.0620
 2356SOL    HW1 8509   2.737   3.011   6.664 -0.6646  0.1572 -0.7164
 2356SOL    HW2 8510   2.796   2.878   6.704 -1.5409  0.4979  1.9751
 2357SOL     OW 8511   3.753   5.285   6.457  0.1263  0.3050 -0.3638
 2357SOL    HW1 8512   3.741   5.254   6.367 -1.3065  0.3067 -0.2066
 2357SOL    HW2 8513   3.837   5.331   6.456  0.6445 -0.6134 -1.4347
 2358SOL     OW 8514   5.570   5.384  12.061 -0.4901  0.3142  0.1264
 2358SOL    HW1 8515   5.608   5.347  11.982 -0.1143  1.6392 -0.3247
 2358SOL    HW2 8516   5.623   5.348  12.132  0.1860  0.3939 -0.3336
 2359SOL     OW 8517   1.970   6.555   9.949  0.1578  0.0262 -0.2474
 2359SOL    HW1 8518   2.008   6.590   9.868 -1.7561  2.6501 -0.1764
 2359SOL    HW2 8519   1.904   6.493   9.919  0.3357  0.0137 -0.6284
 2360SOL     OW 8520   6.496   6.361   8.414 -0.2771 -0.3460  0.3978
 2360SOL    HW1 8521   6.436   6.357   8.339 -1.5915 -1.3404  1.4677
 2360SOL    HW2 8522   6.566   6.299   8.393 -0.9724 -1.0940  0.2717
 2361SOL     OW 8523   1.686   6.061   1.735 -0.1812 -0.0807 -0.0660
 2361SOL    HW1 8524   1.759   6.123   1.727  0.3735 -0.6905  0.1459
 2361SOL    HW2 8525   1.667   6.058   1.829 -0.1945 -0.2400 -0.0734
 2362SOL     OW 8526   1.391   4.376  11.953  0.8081  0.1673  0.1183
 2362SOL    HW1 8527   1.353   4.431  12.021  0.8944  0.0441  0.2665
 2362SOL    HW2 8528   1.404   4.291  11.995 -1.7532 -0.7852 -0.8023
 2363SOL     OW 8529   1.069   4.076   9.669 -0.4904  0.0804 -0.3633
 2363SOL    HW1 8530   1.014   4.087   9.592 -1.2242  1.0270  0.2868
 2363SOL    HW2 8531   1.158   4.087   9.636 -0.8087  0.7305 -1.0264
 2364SOL     OW 8532   7.464   4.364  10.255 -0.2256 -0.2550 -0.0695
 2364SOL    HW1 8533   7.420   4.305  10.194 -1.7657 -0.8085  1.5109
 2364SOL    HW2 8534   7.445   4.452  10.221 -1.9247 -0.5179  0.1485
 2365SOL     OW 8535   7.423   7.610   5.558 -0.1042  0.0781 -0.5083
 2365SOL    HW1 8536   7.475   7.569   5.627 -0.6398 -2.1814 -1.3565
 2365SOL    HW2 8537   7.489   7.647   5.499  0.4739 -0.4944 -0.2454
 2366SOL     OW 8538   4.908   4.573   2.416  0.3579  0.5726  0.7273
 2366SOL    HW1 8539   4.877   4.549   2.328  0.3631 -0.3347  0.9583
 2366SOL    HW2 8540   4.943   4.491   2.451  1.0498  1.0992  1.2923
 2367SOL     OW 8541   0.892   1.818  10.214  0.0935  0.1216  0.2616
 2367SOL    HW1 8542   0.818   1.872  10.186  0.9644  1.2084 -0.0216
 2367SOL    HW2 8543   0.877   1.803  10.308 -1.6209 -1.5642 -0.2181
 2368SOL     OW 8544   4.033   2.995   5.031 -0.4661  0.3281  0.3352
 2368SOL    HW1 8545   4.048   3.083   5.065 -2.1939  0.3260  1.2023
 2368SOL    HW2 8546   3.999   2.946   5.105 -3.2096  0.0014 -1.0267
 2369SOL     OW 8547   7.016   0.364   9.240 -0.0254 -0.2761  0.0260
 2369SOL    HW1 8548   6.962   0.318   9.176 -0.0084 -1.2435  0.6816
 2369SOL    HW2 8549   6.971   0.447   9.254 -1.2274 -0.9637  0.3869
 2370SOL     OW 8550   0.534   2.252  12.215 -0.0753  0.1691 -0.3735
 2370SOL    HW1 8551   0.575   2.171  12.246 -1.2915 -0.9638 -1.5910
 2370SOL    HW2 8552   0.440   2.233  12.216 -0.4670  1.9720  0.3628
 2371SOL     OW 8553   6.709   3.128   4.106  0.2060 -0.0992 -0.0193
 2371SOL    HW1 8554   6.763   3.060   4.146 -1.9896 -1.9925 -0.1255
 2371SOL    HW2 8555   6.644   3.150   4.172  0.3851  1.3674 -0.2870
 2372SOL     OW 8556   0.004   0.615   5.389  0.4399  0.7918  0.2757
 2372SOL    HW1 8557  -0.007   0.590   5.481  1.3749 -0.8545 -0.0155
 2372SOL    HW2 8558  -0.075   0.581   5.346  0.8191 -0.0223  0.2001
 2373SOL     OW 8559   2.729   1.872   9.849  0.0612  0.4299  0.3888
 2373SOL    HW1 8560   2.804   1.868   9.789 -1.1180  1.9337 -1.3116
 2373SOL    HW2 8561   2.653   1.878   9.791 -1.2420  0.7708  2.0657
 2374SOL     OW 8562   2.474   6.796  11.142 -0.3724  0.0426  0.3965
 2374SOL    HW1 8563   2.499   6.793  11.050  0.4043  2.0023  0.4921
 2374SOL    HW2 8564   2.392   6.845  11.143  0.1758  0.9779  0.8124
 2375SOL     OW 8565   0.244   1.083   3.553 -0.0735  0.1182 -0.4104
 2375SOL    HW1 8566   0.156   1.069   3.518  0.3243  1.3263 -1.9601
 2375SOL    HW2 8567   0.297   1.110   3.478  1.5424 -0.1608  0.5652
 2376SOL     OW 8568   1.945   6.876   6.762  0.2012 -0.0200  0.2191
 2376SOL    HW1 8569   1.899   6.935   6.820  1.4763 -0.2126  1.4761
 2376SOL    HW2 8570   2.030   6.862   6.804  0.9689 -0.5728 -1.4281
 2377SOL     OW 8571   3.717   5.973   7.047 -0.3812 -0.0951  0.4679
 2377SOL    HW1 8572   3.760   5.888   7.061  0.2237  0.0671 -0.3087
 2377SOL    HW2 8573   3.716   6.014   7.133  0.3983 -0.4025  0.6368
 2378SOL     OW 8574   5.839   4.891  11.907 -0.0477  1.0549  0.1167
 2378SOL    HW1 8575   5.897   4.921  11.977  0.1037 -1.3989  1.1352
 2378SOL    HW2 8576   5.882   4.813  11.872 -1.9657  0.0581 -0.1363
 2379SOL     OW 8577   2.289   1.519  10.054  0.3087  0.1710  0.3848
 2379SOL    HW1 8578   2.282   1.432  10.015 -1.0382 -0.6137  2.2492
 2379SOL    HW2 8579   2.328   1.504  10.140 -0.7971  1.2736  1.1100
 2380SOL     OW 8580   0.363   0.578  11.976 -0.0307 -0.8420  0.1199
 2380SOL    HW1 8581   0.375   0.538  12.062 -1.3697  0.6584  1.0742
 2380SOL    HW2 8582   0.282   0.628  11.984 -0.8688 -1.6245 -2.4233
 2381SOL     OW 8583   2.537   3.745  11.728  0.8296 -0.0674  0.3355
 2381SOL    HW1 8584   2.577   3.794  11.655 -0.2717 -0.1752 -0.3733
 2381SOL    HW2 8585   2.461   3.798  11.753 -0.4202 -1.3829 -0.4805
 2382SOL     OW 8586   6.133   2.851   9.083 -0.2987  0.4552 -0.5919
 2382SOL    HW1 8587   6.151   2.757   9.091  0.5497  0.6763  0.2427
 2382SOL    HW2 8588   6.061   2.856   9.020 -0.9886 -0.8202  0.0482
 2383SOL     OW 8589   4.364   7.367   9.370 -0.7607 -0.3796  0.1854
 2383SOL    HW1 8590   4.398   7.409   9.449  0.2293  0.5153 -0.6910
 2383SOL    HW2 8591   4.435   7.311   9.340  0.0225  1.4659 -1.6286
 2384SOL     OW 8592   2.959   6.135  10.015 -0.0077  0.6349 -0.6189
 2384SOL    HW1 8593   2.894   6.203  10.037 -0.9532 -0.0566 -1.2101
 2384SOL    HW2 8594   3.016   6.132  10.092 -0.1968  1.8101 -0.4056
 2385SOL     OW 8595   7.650   2.798   0.579 -0.2562 -0.2637  0.3270
 2385SOL    HW1 8596   7.578   2.788   0.642  1.0502 -1.9971  1.6614
 2385SOL    HW2 8597   7.696   2.714   0.583  0.9679  0.2707 -1.6056
 2386SOL     OW 8598   2.002   1.499   5.048 -0.2647  0.3055 -0.3636
 2386SOL    HW1 8599   2.096   1.516   5.039  0.2934 -2.6282 -1.3234
 2386SOL    HW2 8600   1.961   1.553   4.981  1.2381 -1.3611 -2.7797
 2387SOL     OW 8601   1.661   6.235   3.370 -0.2707 -0.0342  0.0017
 2387SOL    HW1 8602   1.628   6.283   3.446  0.6260  0.0296  0.3700
 2387SOL    HW2 8603   1.676   6.146   3.402  0.7241  0.1556  0.0869
 2388SOL     OW 8604   5.713   0.500   4.077  0.1138  0.1234 -0.1805
 2388SOL    HW1 8605   5.683   0.410   4.061  0.8269  0.0511 -1.3107
 2388SOL    HW2 8606   5.633   0.550   4.091 -0.3437 -0.5547 -0.2790
 2389SOL     OW 8607   5.350   3.205   4.057  0.4838 -0.1969  0.3113
 2389SOL    HW1 8608   5.295   3.130   4.033 -0.8696  1.1910 -1.0919
 2389SOL    HW2 8609   5.326   3.224   4.148 -1.3337  0.3153 -0.2413
 2390SOL     OW 8610   5.119   5.276   9.457  0.4175  0.5688  0.2586
 2390SOL    HW1 8611   5.128   5.222   9.535  0.2124 -0.2657 -0.2818
 2390SOL    HW2 8612   5.205   5.272   9.415 -0.2079 -1.2281 -0.9626
 2391SOL     OW 8613   5.841   1.919   9.870  0.0173 -0.0139 -0.0836
 2391SOL    HW1 8614   5.910   1.981   9.895 -0.6618  1.3166 -1.3795
 2391SOL    HW2 8615   5.764   1.974   9.852 -0.7714 -1.2808 -0.7386
 2392SOL     OW 8616   2.445   5.134   8.534 -0.8413 -0.3254  0.3405
 2392SOL    HW1 8617   2.440   5.054   8.483 -2.9858 -0.1249  0.1504
 2392SOL    HW2 8618   2.528   5.127   8.581 -0.6436 -2.3122 -0.2091
 2393SOL     OW 8619   7.647   7.785  11.634  0.6781 -0.0571 -0.0210
 2393SOL    HW1 8620   7.648   7.880  11.639  2.2417 -0.0732  0.4246
 2393SOL    HW2 8621   7.670   7.765  11.543  2.3340 -0.0041  0.3626
 2394SOL     OW 8622   7.638   7.304  10.491  0.1456  0.1195 -0.2207
 2394SOL    HW1 8623   7.680   7.311  10.577  0.0088 -2.4440  0.1314
 2394SOL    HW2 8624   7.548   7.333  10.506  0.2330  0.0914  0.4159
 2395SOL     OW 8625   1.535   2.329   5.964  0.4579 -0.1850  0.2240
 2395SOL    HW1 8626   1.510   2.316   6.056  1.5812  0.8784  0.7139
 2395SOL    HW2 8627   1.484   2.405   5.936  2.8223  1.8991  1.1833
 2396SOL     OW 8628   3.357   2.875   1.169 -0.0525  0.5182  0.2245
 2396SOL    HW1 8629   3.449   2.880   1.197  0.3484 -0.7398 -0.7746
 2396SOL    HW2 8630   3.359   2.822   1.090 -1.9188 -1.6153  1.4897
 2397SOL     OW 8631   2.223   4.533   8.315 -0.1558  0.5242 -0.2099
 2397SOL    HW1 8632   2.283   4.514   8.242  1.4625  0.5478  1.0475
 2397SOL    HW2 8633   2.167   4.603   8.283 -0.9525 -0.9356 -2.1805
 2398SOL     OW 8634   0.743   1.623   8.456  0.3578 -0.0607  0.7903
 2398SOL    HW1 8635   0.654   1.621   8.491  0.0445 -0.5433 -0.0053
 2398SOL    HW2 8636   0.798   1.649   8.530 -0.7063  2.5988  0.7384
 2399SOL     OW 8637   2.454   7.256   0.333  0.5987  0.3046 -0.5153
 2399SOL    HW1 8638   2.454   7.267   0.428 -0.7004  0.6302 -0.5369
 2399SOL    HW2 8639   2.401   7.328   0.299 -0.6469 -0.9208 -1.3187
 2400SOL     OW 8640   6.206   0.723  10.332  0.1901 -0.1703  0.3414
 2400SOL    HW1 8641   6.206   0.749  10.240 -0.7646  0.6134  0.5511
 2400SOL    HW2 8642   6.159   0.792  10.377 -0.3785 -1.1265  1.2616
 2401SOL     OW 8643   7.793   4.139   2.473 -0.2174  0.0901 -0.5297
 2401SOL    HW1 8644   7.754   4.221   2.442 -0.9569 -0.4087 -0.9313
 2401SOL    HW2 8645   7.763   4.073   2.411 -1.4162 -0.8697  0.9999
 2402SOL     OW 8646   1.102   0.056   3.155  0.4013 -0.1211  0.2240
 2402SOL    HW1 8647   1.123   0.140   3.116  0.1371 -1.0117 -1.9610
 2402SOL    HW2 8648   1.120  -0.008   3.086  0.5105 -1.8603  1.7881
 2403SOL     OW 8649   5.241   7.517   6.930  0.6851  0.4283 -0.3476
 2403SOL    HW1 8650   5.187   7.585   6.889  0.9455  1.0364  0.2948
 2403SOL    HW2 8651   5.314   7.506   6.869 -0.6786 -1.2035 -1.7917
 2404SOL     OW 8652   6.789   2.267  10.814  0.4849 -0.1694  0.3158
 2404SOL    HW1 8653   6.760   2.305  10.731 -0.4937 -0.9783  0.2707
 2404SOL    HW2 8654   6.878   2.238  10.798  0.2750 -0.3964 -0.4893
 2405SOL     OW 8655   4.964   0.868   5.105  0.2074  0.6339  0.4879
 2405SOL    HW1 8656   5.032   0.832   5.161  1.9052 -0.9140 -2.3380
 2405SOL    HW2 8657   4.882   0.843   5.148  1.3764  0.2043  2.6033
 2406SOL     OW 8658   5.904   0.893   1.017 -0.0457  0.1171  0.3124
 2406SOL    HW1 8659   5.822   0.882   0.971  0.7309 -0.8707 -0.9083
 2406SOL    HW2 8660   5.937   0.978   0.989 -0.6580  0.5399  0.8506
 2407SOL     OW 8661   3.275   6.421   4.403 -0.1144 -0.3029 -0.3418
 2407SOL    HW1 8662   3.261   6.372   4.485  0.0653 -1.7063 -1.1144
 2407SOL    HW2 8663   3.362   6.394   4.374 -0.3141 -0.0833 -1.1713
 2408SOL     OW 8664   4.802   0.950   2.439  0.0962  0.3145  0.4091
 2408SOL    HW1 8665   4.734   1.012   2.464  0.4654  0.5538  0.8495
 2408SOL    HW2 8666   4.884   0.992   2.466  0.2308 -1.3380  2.9160
 2409SOL     OW 8667   1.868   6.681   8.787 -0.5652  0.1090 -0.6239
 2409SOL    HW1 8668   1.927   6.659   8.715  0.3819  0.8891 -0.1102
 2409SOL    HW2 8669   1.780   6.672   8.750 -0.1001  0.1090 -1.7536
 2410SOL     OW 8670   2.528   1.067   2.731 -0.1342 -0.2631 -0.1786
 2410SOL    HW1 8671   2.576   1.099   2.655 -1.2529  2.0371 -0.0189
 2410SOL    HW2 8672   2.468   1.139   2.753 -3.0720 -2.6039  0.1162
 2411SOL     OW 8673   2.889   5.453   3.534 -0.1164 -0.1219  0.0395
 2411SOL    HW1 8674   2.972   5.408   3.521  0.1448  0.4918 -0.4769
 2411SOL    HW2 8675   2.912   5.528   3.590 -0.6658 -0.9865  1.4951
 2412SOL     OW 8676   2.348   0.795   1.794  0.2780 -0.2821  0.7324
 2412SOL    HW1 8677   2.267   0.844   1.781  1.7516  2.4224  0.9001
 2412SOL    HW2 8678   2.342   0.762   1.884 -1.6784 -2.4198 -0.0938
 2413SOL     OW 8679   6.994   1.782   8.009 -0.1057 -0.2029 -0.1719
 2413SOL    HW1 8680   6.950   1.845   7.951  0.8327  0.7330  0.1005
 2413SOL    HW2 8681   6.973   1.813   8.097 -1.3583 -1.5027  0.0332
 2414SOL     OW 8682   0.407   6.004   5.416  0.1379  0.3238 -0.1092
 2414SOL    HW1 8683   0.383   5.931   5.474  1.2582 -0.1930 -0.2606
 2414SOL    HW2 8684   0.352   5.992   5.339  1.7835 -1.6900 -1.0698
 2415SOL     OW 8685   3.851   0.503   3.958 -0.0115 -0.3273  0.2848
 2415SOL    HW1 8686   3.781   0.506   4.024  0.6626 -1.9689  1.1433
 2415SOL    HW2 8687   3.932   0.501   4.009  0.5601 -0.7196 -0.6187
 2416SOL     OW 8688   7.796   3.558  11.150 -0.1617  0.1465 -0.3831
 2416SOL    HW1 8689   7.814   3.539  11.057 -0.2278  0.6975 -0.5115
 2416SOL    HW2 8690   7.736   3.489  11.177 -0.8067  0.4532 -0.9803
 2417SOL     OW 8691   4.549   7.102   0.126 -0.2660 -0.1821  0.4177
 2417SOL    HW1 8692   4.559   7.173   0.189 -1.3844  0.3893 -0.0178
 2417SOL    HW2 8693   4.550   7.145   0.041  0.9595 -0.9179  0.0479
 2418SOL     OW 8694   2.479   0.355   2.300 -0.1368 -0.0607  0.3331
 2418SOL    HW1 8695   2.456   0.296   2.228 -0.2956 -0.4443  0.6955
 2418SOL    HW2 8696   2.566   0.387   2.278 -0.1679 -0.2084 -0.0096
 2419SOL     OW 8697   0.405   0.055   9.872  0.2231  0.1161 -0.3266
 2419SOL    HW1 8698   0.453   0.132   9.902  0.0469  0.6192 -1.2972
 2419SOL    HW2 8699   0.473  -0.007   9.844  0.3527  0.0668  0.0919
 2420SOL     OW 8700   6.593   1.410  10.433 -0.1360 -0.3163  0.1389
 2420SOL    HW1 8701   6.678   1.380  10.466  0.7415  3.0584  1.4830
 2420SOL    HW2 8702   6.611   1.439  10.344  0.8612  2.4737  1.1272
 2421SOL     OW 8703   2.841   4.623   7.095 -0.3942  0.2058 -0.1358
 2421SOL    HW1 8704   2.851   4.640   7.188  0.5242  3.9198 -0.7532
 2421SOL    HW2 8705   2.917   4.570   7.071 -0.2200 -0.1113  1.0627
 2422SOL     OW 8706   3.635   7.333   7.032 -0.0511  0.0396 -0.2990
 2422SOL    HW1 8707   3.626   7.344   7.126  0.9754 -2.2338  0.1265
 2422SOL    HW2 8708   3.546   7.316   7.001 -0.5520  1.7859  0.0529
 2423SOL     OW 8709   6.429   6.283   0.890  0.3189 -0.2246  0.0032
 2423SOL    HW1 8710   6.492   6.338   0.936 -1.5544  0.1580  2.2762
 2423SOL    HW2 8711   6.416   6.207   0.947 -1.7903  0.0574 -0.0214
 2424SOL     OW 8712   6.043   5.223   2.481 -0.1476 -0.4792  0.5192
 2424SOL    HW1 8713   6.112   5.235   2.416  0.2085 -0.4708  0.8915
 2424SOL    HW2 8714   6.005   5.138   2.461 -0.2563 -0.3325  0.1010
 2425SOL     OW 8715   3.377   2.502  10.933 -0.5876 -0.3619  0.1570
 2425SOL    HW1 8716   3.326   2.543  11.003  0.7680  0.7272  0.5334
 2425SOL    HW2 8717   3.330   2.525  10.853 -0.0130  1.7691  0.3823
 2426SOL     OW 8718   4.950   7.561   8.502  0.5634 -0.5169  0.3542
 2426SOL    HW1 8719   4.973   7.552   8.410 -0.1214  0.2911  0.0889
 2426SOL    HW2 8720   4.882   7.628   8.503  0.0379 -1.0402  1.3724
 2427SOL     OW 8721   0.519   5.290   1.600 -0.1096 -0.0779 -0.2371
 2427SOL    HW1 8722   0.537   5.256   1.688  0.8646 -0.3125 -0.5143
 2427SOL    HW2 8723   0.583   5.360   1.588 -0.2599 -0.0251 -0.7517
 2428SOL     OW 8724   3.266   3.667   9.847  0.1954  0.4789  0.2616
 2428SOL    HW1 8725   3.291   3.715   9.926  2.3687  1.2687 -0.8090
 2428SOL    HW2 8726   3.337   3.604   9.834 -0.0668  0.4448 -1.1146
 2429SOL     OW 8727   0.512   4.781   9.986 -0.4056 -0.6009  0.2203
 2429SOL    HW1 8728   0.471   4.762  10.070  0.7293 -1.2224  0.6600
 2429SOL    HW2 8729   0.600   4.811  10.008 -0.4195  0.1951 -0.7119
 2430SOL     OW 8730   2.401   5.590   4.577 -0.2776  0.2627  0.0719
 2430SOL    HW1 8731   2.427   5.629   4.660  0.0254  1.9048 -0.7490
 2430SOL    HW2 8732   2.307   5.572   4.587  0.0348 -0.8223  1.2169
 2431SOL     OW 8733   0.146   4.494  10.362  0.3410  0.4384  0.5463
 2431SOL    HW1 8734   0.141   4.407  10.324  1.2484  0.4173  0.4539
 2431SOL    HW2 8735   0.210   4.541  10.308 -0.6310  1.3789  0.1823
 2432SOL     OW 8736   5.921   5.575   9.198  0.2882  0.5942  0.1322
 2432SOL    HW1 8737   5.838   5.622   9.189 -0.1116 -0.3402 -1.6342
 2432SOL    HW2 8738   5.977   5.634   9.248 -1.5054  1.1378  1.6161
 2433SOL     OW 8739   4.762   2.278   6.710 -0.1164  0.0302  0.1241
 2433SOL    HW1 8740   4.684   2.223   6.704 -1.5909  2.1596 -2.6899
 2433SOL    HW2 8741   4.830   2.220   6.743 -1.2642 -3.8440 -3.4506
 2434SOL     OW 8742   1.318   5.466  10.055 -0.5399 -0.2967 -0.2560
 2434SOL    HW1 8743   1.405   5.436  10.028 -0.2525 -0.1482  0.4771
 2434SOL    HW2 8744   1.258   5.415  10.001 -0.0544 -1.7905  0.5546
 2435SOL     OW 8745   2.688   3.144   1.599  0.3219 -0.4114  0.4528
 2435SOL    HW1 8746   2.750   3.142   1.672  0.4698 -1.6306  0.3236
 2435SOL    HW2 8747   2.709   3.224   1.551  2.0328 -0.9546  0.2174
 2436SOL     OW 8748   7.202   5.764  10.233 -0.3843 -0.0098  0.4531
 2436SOL    HW1 8749   7.228   5.713  10.157 -0.4539 -0.9730  1.0562
 2436SOL    HW2 8750   7.106   5.768  10.228 -0.4299 -0.5686  0.7880
 2437SOL     OW 8751   2.035   5.527   5.797  0.7082  0.5017 -0.6270
 2437SOL    HW1 8752   2.046   5.481   5.880  0.2669 -0.9816 -1.3588
 2437SOL    HW2 8753   2.119   5.572   5.783  1.7329 -1.2988 -0.5841
 2438SOL     OW 8754   3.993   2.257   1.291 -0.0348 -0.4611  0.1522
 2438SOL    HW1 8755   4.056   2.185   1.296 -0.6131 -0.9072  1.2334
 2438SOL    HW2 8756   3.977   2.282   1.382 -2.7686 -1.5477  0.0677
 2439SOL     OW 8757   2.449   4.504   3.684 -0.2581  0.0646  0.0741
 2439SOL    HW1 8758   2.357   4.483   3.699 -0.8735  2.9904  1.0955
 2439SOL    HW2 8759   2.447   4.562   3.608  0.9291 -0.8485 -0.6815
 2440SOL     OW 8760   6.255   5.328  10.334  0.4505  0.3540 -0.4815
 2440SOL    HW1 8761   6.256   5.363  10.245  2.6188 -0.7295 -0.9452
 2440SOL    HW2 8762   6.331   5.367  10.377 -0.7773  1.1667  1.0745
 2441SOL     OW 8763   1.759   7.282   8.876 -0.1240  0.3584  0.3342
 2441SOL    HW1 8764   1.751   7.296   8.782 -0.7301  1.9425  0.6010
 2441SOL    HW2 8765   1.846   7.315   8.898 -0.5945  1.4862  0.5651
 2442SOL     OW 8766   6.246   1.170   7.670 -0.0293 -0.0977  0.0180
 2442SOL    HW1 8767   6.324   1.213   7.635  1.0874 -1.8896  0.1714
 2442SOL    HW2 8768   6.235   1.208   7.757  0.3390  0.5468 -0.2056
 2443SOL     OW 8769   2.105   2.348   8.934 -0.6249 -0.6528 -0.3477
 2443SOL    HW1 8770   2.037   2.282   8.926 -0.3937 -0.8934 -0.3284
 2443SOL    HW2 8771   2.167   2.313   8.998 -0.3057 -0.5897 -0.6161
 2444SOL     OW 8772   1.278   0.628   1.990  0.1416 -0.3332 -0.8581
 2444SOL    HW1 8773   1.349   0.678   2.029  0.8150 -1.0963 -1.0700
 2444SOL    HW2 8774   1.301   0.619   1.897 -0.4947 -0.1425 -1.0439
 2445SOL     OW 8775   1.371   2.772   1.897  0.5160 -0.0008  0.0935
 2445SOL    HW1 8776   1.331   2.843   1.947  1.0722  0.6646 -0.3892
 2445SOL    HW2 8777   1.445   2.813   1.853  0.7620 -0.8568 -0.3016
 2446SOL     OW 8778   1.372   4.234   3.263 -0.0127 -0.0005 -0.1587
 2446SOL    HW1 8779   1.450   4.209   3.312  0.1795  0.2873 -0.3086
 2446SOL    HW2 8780   1.405   4.256   3.175 -0.2972 -0.1317 -0.3006
 2447SOL     OW 8781   3.230   7.279   7.663  0.2288  0.2393  0.3886
 2447SOL    HW1 8782   3.226   7.203   7.604 -1.1520  0.1239  0.6041
 2447SOL    HW2 8783   3.215   7.242   7.750  1.4819  0.5162  0.7422
 2448SOL     OW 8784   3.378   1.988   5.737 -0.2647  0.1340 -0.3066
 2448SOL    HW1 8785   3.327   1.969   5.815  2.2875 -2.2633  0.9627
 2448SOL    HW2 8786   3.390   2.083   5.739  0.3334  0.0920  2.6922
 2449SOL     OW 8787   3.427   6.088   1.937  0.0561  0.0845 -0.1101
 2449SOL    HW1 8788   3.521   6.091   1.919 -0.1544  1.3507 -1.1004
 2449SOL    HW2 8789   3.401   6.180   1.943 -0.8981 -0.2540  1.4568
 2450SOL     OW 8790   4.852   2.234   3.281 -0.4494 -0.5392  0.0726
 2450SOL    HW1 8791   4.812   2.243   3.194 -0.5029 -0.3453  0.1160
 2450SOL    HW2 8792   4.780   2.204   3.337 -1.4525  2.9045  0.8636
 2451SOL     OW 8793   5.648   6.808   5.924 -0.0827 -0.2369 -0.3689
 2451SOL    HW1 8794   5.592   6.795   6.000 -1.1776 -0.6294 -1.2139
 2451SOL    HW2 8795   5.737   6.791   5.956 -0.4580  0.1897  0.9475
 2452SOL     OW 8796   4.162   2.864   2.409 -0.0931 -0.2961 -0.4614
 2452SOL    HW1 8797   4.231   2.879   2.473  2.1176  0.1417 -2.7686
 2452SOL    HW2 8798   4.130   2.952   2.387 -1.5655 -0.5006  0.6782
 2453SOL     OW 8799   2.676   6.798   5.774  0.1608  0.2813 -0.5014
 2453SOL    HW1 8800   2.632   6.881   5.762  0.9506  0.5315 -1.8621
 2453SOL    HW2 8801   2.632   6.738   5.714 -0.9778 -0.5631  1.0808
 2454SOL     OW 8802   6.509   3.017   0.263  0.1076  0.4770 -0.0018
 2454SOL    HW1 8803   6.585   2.979   0.219 -0.4495 -1.0056  0.2582
 2454SOL    HW2 8804   6.446   3.032   0.192 -0.0919 -0.1648  0.0325
 2455SOL     OW 8805   0.984   2.793   5.016 -0.1735  0.2186  0.0882
 2455SOL    HW1 8806   1.057   2.732   5.008 -0.3461  0.0705 -0.3660
 2455SOL    HW2 8807   0.988   2.846   4.937 -0.9516 -0.2217 -0.2582
 2456SOL     OW 8808   7.373   4.633  10.905  0.5247  0.1458 -0.0442
 2456SOL    HW1 8809   7.330   4.547  10.900  1.7127 -0.5067  0.5310
 2456SOL    HW2 8810   7.386   4.658  10.814 -1.3941  0.5552 -0.2506
 2457SOL     OW 8811   7.689   1.879   6.651 -0.2674  0.5320 -0.4634
 2457SOL    HW1 8812   7.705   1.840   6.737 -1.7370  1.0550  0.0761
 2457SOL    HW2 8813   7.702   1.807   6.589 -1.1809 -0.3903  0.3732
 2458SOL     OW 8814   6.175   4.281   8.367 -0.1252 -0.9767 -0.2383
 2458SOL    HW1 8815   6.254   4.331   8.388 -1.4941  1.7160 -0.9301
 2458SOL    HW2 8816   6.135   4.263   8.452  0.6209 -1.3306  0.0508
 2459SOL     OW 8817   5.503   3.903  12.288  0.2647  0.0827 -0.5492
 2459SOL    HW1 8818   5.557   3.899  12.366  0.6000 -0.8856 -0.8152
 2459SOL    HW2 8819   5.452   3.822  12.290  1.3216 -0.6524 -2.0634
 2460SOL     OW 8820   4.317   4.635  11.252  0.1255  0.2528 -0.1629
 2460SOL    HW1 8821   4.253   4.673  11.312 -1.3588  0.0013 -1.5453
 2460SOL    HW2 8822   4.342   4.552  11.293  0.3033  0.7844  0.8445
 2461SOL     OW 8823   2.812   7.854   3.358 -0.7208 -0.1165 -0.0473
 2461SOL    HW1 8824   2.816   7.794   3.284  1.0094 -1.9781  1.4466
 2461SOL    HW2 8825   2.871   7.926   3.334  0.5192 -1.1424 -0.1477
 2462SOL     OW 8826   5.627   1.566   4.918  0.3286 -0.0808  0.2654
 2462SOL    HW1 8827   5.547   1.598   4.875 -0.5253  1.9757  3.1021
 2462SOL    HW2 8828   5.688   1.640   4.913  1.6707 -1.2026 -0.7626
 2463SOL     OW 8829   5.697   0.588   6.948  0.1000 -0.1054  0.3172
 2463SOL    HW1 8830   5.653   0.654   7.001  0.2530  0.7310 -0.5593
 2463SOL    HW2 8831   5.781   0.629   6.925  0.8435 -1.2152  1.0136
 2464SOL     OW 8832   3.922   1.276   7.767  0.0337 -0.2319  0.0954
 2464SOL    HW1 8833   3.969   1.259   7.685  1.2686  0.8428  0.5439
 2464SOL    HW2 8834   3.882   1.192   7.789 -1.8353 -0.1348 -2.4932
 2465SOL     OW 8835   3.743   6.926  12.300 -0.1398 -0.1692  0.2380
 2465SOL    HW1 8836   3.834   6.955  12.308 -0.2168  0.4386 -0.9333
 2465SOL    HW2 8837   3.748   6.846  12.248 -0.1482 -1.0355  1.5199
 2466SOL     OW 8838   5.629   1.644  10.415 -0.6590  0.3979 -0.1959
 2466SOL    HW1 8839   5.583   1.660  10.497 -2.1988 -0.9962 -0.7368
 2466SOL    HW2 8840   5.578   1.576  10.371 -0.4366  1.7459 -2.7505
 2467SOL     OW 8841   5.006   7.752   4.505  0.0977  0.0257 -0.4328
 2467SOL    HW1 8842   5.069   7.813   4.544 -0.4970 -0.6352  1.7115
 2467SOL    HW2 8843   5.032   7.746   4.413  2.6326  0.4285  0.1802
 2468SOL     OW 8844   6.038   5.294   7.113 -0.3762  0.0687 -0.3988
 2468SOL    HW1 8845   5.963   5.314   7.168  0.1091 -0.0584  0.3242
 2468SOL    HW2 8846   6.104   5.260   7.174 -0.1280 -0.8788 -1.1683
 2469SOL     OW 8847   0.693   3.517   9.523 -0.0684  0.2801 -0.0209
 2469SOL    HW1 8848   0.656   3.484   9.442  0.7835  0.8178 -0.6506
 2469SOL    HW2 8849   0.689   3.613   9.514  0.7558  0.3439  0.2171
 2470SOL     OW 8850   1.737   1.090   2.156 -0.2894 -0.2081  0.5241
 2470SOL    HW1 8851   1.672   1.087   2.226 -1.1102 -1.7322 -0.2675
 2470SOL    HW2 8852   1.698   1.145   2.088  1.0291  2.3357  1.6886
 2471SOL     OW 8853   0.966   5.410   5.946  0.1928  0.0611 -0.6271
 2471SOL    HW1 8854   1.012   5.476   5.998 -0.9217  0.3487  0.0337
 2471SOL    HW2 8855   0.985   5.433   5.855  0.7368  0.6179 -0.3778
 2472SOL     OW 8856   3.065   4.491   1.789  0.2957 -0.2426 -0.5227
 2472SOL    HW1 8857   2.974   4.468   1.807  0.1690 -0.0292 -0.8792
 2472SOL    HW2 8858   3.111   4.475   1.872 -0.2408  0.5593 -0.0485
 2473SOL     OW 8859   0.882   7.081   8.997 -0.2882 -0.0430  0.2788
 2473SOL    HW1 8860   0.961   7.028   8.988 -0.5787 -0.4722  0.2268
 2473SOL    HW2 8861   0.812   7.017   9.012 -0.7977  0.2589 -0.7600
 2474SOL     OW 8862   7.587   3.060   8.842 -0.6692  0.5496  0.2713
 2474SOL    HW1 8863   7.629   3.020   8.765 -1.6346 -1.2028  0.5953
 2474SOL    HW2 8864   7.660   3.093   8.894  0.4280 -2.3394  0.7846
 2475SOL     OW 8865   0.221   1.372  10.868  0.4151  0.4969 -0.4499
 2475SOL    HW1 8866   0.128   1.378  10.848  0.3428 -0.0114 -0.2803
 2475SOL    HW2 8867   0.254   1.307  10.807 -0.1771 -2.5816  2.2059
 2476SOL     OW 8868   3.964   4.077   6.797 -0.1570  0.3540  0.1147
 2476SOL    HW1 8869   3.956   4.031   6.714 -0.2431 -2.0725  1.3830
 2476SOL    HW2 8870   3.951   4.169   6.775 -0.5661 -0.2557 -2.4740
 2477SOL     OW 8871   0.516   1.728   7.888 -0.6759  0.0205 -0.0631
 2477SOL    HW1 8872   0.551   1.661   7.947  1.3557  1.6644  0.6988
 2477SOL    HW2 8873   0.454   1.777   7.942 -0.8047 -0.1172 -0.0855
 2478SOL     OW 8874   7.184   1.687  11.018 -0.2548 -0.4061  0.6659
 2478SOL    HW1 8875   7.262   1.721  11.061  0.4655 -1.7308  0.4558
 2478SOL    HW2 8876   7.133   1.646  11.088 -0.5194  0.0190  0.7231
 2479SOL     OW 8877   2.728   4.920   3.696 -0.5516  0.2655 -0.0551
 2479SOL    HW1 8878   2.655   4.891   3.641  0.1890 -1.7529 -0.0383
 2479SOL    HW2 8879   2.806   4.882   3.655  0.3692  1.2628  0.6967
 2480SOL     OW 8880   6.279   4.571   2.230 -0.3003  0.5836  0.1872
 2480SOL    HW1 8881   6.336   4.577   2.306 -0.1238  1.9374 -0.0250
 2480SOL    HW2 8882   6.326   4.514   2.169  0.7607  1.5310  0.0851
 2481SOL     OW 8883   3.852   6.118   7.266  0.2037 -0.7304 -0.2525
 2481SOL    HW1 8884   3.850   6.135   7.360  0.0019  1.8344 -0.6503
 2481SOL    HW2 8885   3.942   6.135   7.240 -0.1597  0.5036 -0.7901
 2482SOL     OW 8886   5.312   3.140   3.037  0.3276  0.0743  0.0182
 2482SOL    HW1 8887   5.305   3.184   3.122  0.2569  0.5070 -0.2088
 2482SOL    HW2 8888   5.380   3.189   2.991  0.0228  0.1412 -0.3575
 2483SOL     OW 8889   1.792   5.427   9.853 -0.2039  0.2556  0.1886
 2483SOL    HW1 8890   1.797   5.519   9.828 -1.3553  0.4136  0.4850
 2483SOL    HW2 8891   1.880   5.405   9.882 -0.3135  1.7422  1.7416
 2484SOL     OW 8892   5.853   3.026   7.836 -0.3759 -0.2009  0.3511
 2484SOL    HW1 8893   5.881   3.041   7.745  0.4689  1.0362  0.7867
 2484SOL    HW2 8894   5.764   3.059   7.839 -0.5759 -0.6682 -0.1263
 2485SOL     OW 8895   7.696   4.849   8.063 -0.0314 -0.0780  0.1090
 2485SOL    HW1 8896   7.616   4.799   8.079  0.6974 -2.0626 -1.8772
 2485SOL    HW2 8897   7.751   4.829   8.139 -1.1727  0.8643  1.2204
 2486SOL     OW 8898   3.050   0.677   5.004 -0.1213  0.1334 -0.3418
 2486SOL    HW1 8899   2.958   0.653   4.992 -0.6690  1.9429  0.0064
 2486SOL    HW2 8900   3.068   0.740   4.935  1.2137 -1.0237 -1.1007
 2487SOL     OW 8901   4.170   3.598   9.924 -0.3614  0.2439 -0.1445
 2487SOL    HW1 8902   4.181   3.655   9.848  0.7945 -0.8286 -0.8374
 2487SOL    HW2 8903   4.242   3.535   9.917 -1.5293 -1.2566  0.6160
 2488SOL     OW 8904   7.780   2.616   4.641 -0.2598  0.2223 -0.2762
 2488SOL    HW1 8905   7.735   2.532   4.633  0.3477 -0.0563 -0.8035
 2488SOL    HW2 8906   7.763   2.643   4.731 -0.0188 -0.7213  0.0614
 2489SOL     OW 8907   6.578   4.366   0.271 -0.3688  0.1985 -0.5096
 2489SOL    HW1 8908   6.562   4.300   0.204 -0.6661 -1.7107  1.3474
 2489SOL    HW2 8909   6.540   4.447   0.234 -0.1335 -0.6532 -2.7792
 2490SOL     OW 8910   0.361   6.212   5.768 -0.1573  0.0426 -0.5487
 2490SOL    HW1 8911   0.294   6.182   5.706 -0.9995 -1.5311  1.0194
 2490SOL    HW2 8912   0.322   6.197   5.854  1.6786  0.4335  0.3993
 2491SOL     OW 8913   5.063   2.151   4.772 -0.1330 -0.2061 -0.0674
 2491SOL    HW1 8914   4.987   2.207   4.790  1.9881  2.1794  2.3146
 2491SOL    HW2 8915   5.067   2.092   4.847  1.3568  0.9587  0.8158
 2492SOL     OW 8916   0.127   6.222   0.528 -0.2628  0.3576  0.2581
 2492SOL    HW1 8917   0.160   6.302   0.487  0.5965 -0.6368 -1.0896
 2492SOL    HW2 8918   0.037   6.214   0.496  0.0420  0.1712 -0.5890
 2493SOL     OW 8919   5.538   4.946   2.817  0.1886 -0.2101  0.4487
 2493SOL    HW1 8920   5.563   4.854   2.815  0.0422 -0.3042  1.7606
 2493SOL    HW2 8921   5.443   4.945   2.832  0.1816  0.1407  0.4470
 2494SOL     OW 8922   5.414   2.826   5.153  0.1215 -0.1121  0.2662
 2494SOL    HW1 8923   5.421   2.893   5.085  1.5693  0.2057  0.6899
 2494SOL    HW2 8924   5.358   2.865   5.220  0.2907  0.3487  0.1416
 2495SOL     OW 8925   4.737   2.773   5.035 -0.1819 -0.4666 -0.2556
 2495SOL    HW1 8926   4.675   2.733   4.975  0.3616 -0.6187 -0.7207
 2495SOL    HW2 8927   4.687   2.785   5.116 -1.0513  0.1380 -0.8539
 2496SOL     OW 8928   2.888   7.450   8.956  0.5494  0.2588 -0.2887
 2496SOL    HW1 8929   2.808   7.488   8.993  0.3050 -0.7301  0.2437
 2496SOL    HW2 8930   2.935   7.524   8.918 -0.0495  1.0376  0.4542
 2497SOL     OW 8931   6.044   4.253   1.820  0.3494 -0.1627 -0.2029
 2497SOL    HW1 8932   6.033   4.181   1.881 -0.5509  0.0913 -0.0624
 2497SOL    HW2 8933   5.988   4.231   1.746 -0.6858  0.8510  0.2590
 2498SOL     OW 8934   1.257   0.513   0.049  0.0222  0.0894  0.8038
 2498SOL    HW1 8935   1.241   0.568   0.125 -0.6689  0.0149  0.7235
 2498SOL    HW2 8936   1.347   0.484   0.058  0.2533  0.8739  1.0780
 2499SOL     OW 8937   5.458   4.486   2.718  0.3601 -0.2690 -0.3362
 2499SOL    HW1 8938   5.413   4.504   2.800 -2.3062 -2.1172 -1.2267
 2499SOL    HW2 8939   5.414   4.542   2.653  2.3668  1.1069 -0.5904
 2500SOL     OW 8940   4.916   1.960   8.390  0.3085 -0.6591 -0.4870
 2500SOL    HW1 8941   4.884   2.044   8.423  0.0778 -1.5200  1.6227
 2500SOL    HW2 8942   4.915   1.903   8.466  0.7024 -2.5236 -1.8259
 2501SOL     OW 8943   2.429   2.338   9.713  0.0191  0.2633  0.0066
 2501SOL    HW1 8944   2.457   2.340   9.621  1.5572 -0.6030  0.4153
 2501SOL    HW2 8945   2.396   2.249   9.725  1.9105 -0.3831  0.8208
 2502SOL     OW 8946   5.746   1.689   6.358  0.1309  0.0344 -0.2795
 2502SOL    HW1 8947   5.830   1.736   6.359  0.3341 -0.3169  1.1583
 2502SOL    HW2 8948   5.691   1.737   6.419  0.1696 -1.2365  0.8141
 2503SOL     OW 8949   2.009   1.951   0.888 -0.8107 -0.1041  0.1174
 2503SOL    HW1 8950   2.088   1.906   0.920 -1.1641 -1.5912 -0.9756
 2503SOL    HW2 8951   2.039   1.999   0.811 -0.6635  0.6357  0.6292
 2504SOL     OW 8952   0.647   6.199   3.095 -0.0252  0.1558 -0.3804
 2504SOL    HW1 8953   0.720   6.136   3.095 -0.6100 -0.5331 -0.9696
 2504SOL    HW2 8954   0.573   6.151   3.060 -0.5801  1.0837 -0.5252
 2505SOL     OW 8955   7.405   7.672   4.491 -0.1075 -0.2088 -0.6561
 2505SOL    HW1 8956   7.381   7.655   4.400  0.7911  0.9392 -1.1315
 2505SOL    HW2 8957   7.501   7.666   4.492 -0.1399 -0.9626  0.3953
 2506SOL     OW 8958   5.700   5.546   9.549 -0.0671  0.2649 -0.3155
 2506SOL    HW1 8959   5.745   5.513   9.470  0.4804 -0.1272  0.1465
 2506SOL    HW2 8960   5.730   5.636   9.557  1.0799 -0.1434  0.2757
 2507SOL     OW 8961   4.339   7.606   5.515  0.7221 -0.7094  0.0785
 2507SOL    HW1 8962   4.336   7.511   5.503 -1.0644 -0.5939 -0.6929
 2507SOL    HW2 8963   4.326   7.641   5.427  2.2429  0.2972  0.2037
 2508SOL     OW 8964   7.418   5.153   1.181 -0.2540  0.1239  0.2490
 2508SOL    HW1 8965   7.429   5.090   1.252  1.3422  1.3119  1.1307
 2508SOL    HW2 8966   7.373   5.227   1.222  0.9407  0.9382  0.1402
 2509SOL     OW 8967   2.687   2.013  10.491 -0.5259  0.4462  0.5117
 2509SOL    HW1 8968   2.769   2.062  10.498 -0.8869  1.0323  0.7048
 2509SOL    HW2 8969   2.647   2.021  10.578 -0.2398 -0.8423  0.7938
 2510SOL     OW 8970   5.977   0.662   6.904 -0.3813 -0.4704  0.2042
 2510SOL    HW1 8971   6.034   0.667   6.828 -1.3526 -1.0385 -0.5839
 2510SOL    HW2 8972   5.997   0.741   6.954  0.5764 -0.3091 -0.4152
 2511SOL     OW 8973   7.232   1.478   7.634  0.1227 -0.4732  0.0737
 2511SOL    HW1 8974   7.223   1.419   7.559  1.2132  0.8811 -1.1968
 2511SOL    HW2 8975   7.152   1.531   7.633  1.3686  1.6282 -2.1503
 2512SOL     OW 8976   2.529   5.313   7.622  0.2735  0.7684 -0.1733
 2512SOL    HW1 8977   2.595   5.243   7.629  0.8824  1.3658  0.1703
 2512SOL    HW2 8978   2.447   5.269   7.645  0.7718  0.3425  0.9185
 2513SOL     OW 8979   0.970   6.553   3.859 -0.5113  0.5400  0.5504
 2513SOL    HW1 8980   1.042   6.613   3.840  0.6419 -0.3806  1.7902
 2513SOL    HW2 8981   0.999   6.505   3.937 -2.8020  0.6785  1.5632
 2514SOL     OW 8982   3.334   6.206  10.434 -0.0844  0.0683 -0.1004
 2514SOL    HW1 8983   3.404   6.213  10.369  1.5543 -1.1952  1.4210
 2514SOL    HW2 8984   3.351   6.123  10.478 -0.2660  1.4904  2.8770
 2515SOL     OW 8985   1.817   6.540   3.906  0.3845  0.0278 -0.5715
 2515SOL    HW1 8986   1.762   6.616   3.890 -0.7471 -0.1965  1.8022
 2515SOL    HW2 8987   1.885   6.571   3.965 -0.6986 -0.9437  1.2889
 2516SOL     OW 8988   0.805   7.224   5.505 -0.3891  0.6661 -0.0491
 2516SOL    HW1 8989   0.897   7.206   5.524  0.3197  1.1203 -2.6143
 2516SOL    HW2 8990   0.759   7.198   5.584  1.8665 -0.2021  1.0861
 2517SOL     OW 8991   7.312   7.030   6.558 -0.3074  0.0562 -0.0208
 2517SOL    HW1 8992   7.402   7.061   6.551 -0.1164 -0.5930 -0.5303
 2517SOL    HW2 8993   7.319   6.935   6.564 -1.0100 -0.0924 -1.2923
 2518SOL     OW 8994   1.969   2.284   7.633 -0.0172 -0.2141 -0.2264
 2518SOL    HW1 8995   2.053   2.301   7.589  0.5308  0.4417  1.0048
 2518SOL    HW2 8996   1.903   2.317   7.572  0.7717  1.6575 -0.1356
 2519SOL     OW 8997   0.472   0.547   1.282  0.0459  0.3807  0.2026
 2519SOL    HW1 8998   0.399   0.549   1.344 -0.3163  2.1597 -0.2269
 2519SOL    HW2 8999   0.438   0.590   1.204  0.3625 -2.1194 -1.4479
 2520SOL     OW 9000   7.419   7.740   8.992  0.4827  0.1641 -0.4839
 2520SOL    HW1 9001   7.389   7.759   9.081  1.1229 -0.8153 -0.0456
 2520SOL    HW2 9002   7.482   7.809   8.973  0.3541  0.3706 -0.1687
 2521SOL     OW 9003   2.544   4.598   8.091  0.5522  0.3307 -0.6081
 2521SOL    HW1 9004   2.579   4.516   8.056 -1.1509  0.3411 -2.5050
 2521SOL    HW2 9005   2.616   4.636   8.141  2.0743 -1.2837 -1.4953
 2522SOL     OW 9006   4.979   6.973  12.065 -0.1201  0.1716  0.5400
 2522SOL    HW1 9007   4.991   6.919  11.987 -0.8115  1.4981 -0.5507
 2522SOL    HW2 9008   5.060   7.024  12.072 -0.3562  0.6052  0.2076
 2523SOL     OW 9009   4.396   5.977   9.781 -0.3894 -0.1190  0.0571
 2523SOL    HW1 9010   4.313   5.942   9.815 -1.1207  1.5449  0.0813
 2523SOL    HW2 9011   4.379   5.990   9.687  0.0185 -0.2146 -0.0304
 2524SOL     OW 9012   1.477   7.145   7.587 -0.6274  0.2011  0.3464
 2524SOL    HW1 9013   1.386   7.117   7.579 -0.6639  0.3824  0.1226
 2524SOL    HW2 9014   1.521   7.071   7.630 -0.3501 -0.9877 -1.8299
 2525SOL     OW 9015   5.386   4.332   3.752  0.2343  0.1237  0.1069
 2525SOL    HW1 9016   5.379   4.426   3.741 -1.2561 -0.1340 -1.6991
 2525SOL    HW2 9017   5.480   4.315   3.758  0.6034  1.6180 -0.8657
 2526SOL     OW 9018   0.033   6.911  11.784 -0.0776  0.6402  0.1216
 2526SOL    HW1 9019   0.015   6.854  11.709  2.2539  1.7156 -1.3892
 2526SOL    HW2 9020  -0.052   6.923  11.826 -1.0978 -1.8274 -0.9907
 2527SOL     OW 9021   7.792   1.547   1.714  0.0684 -0.8000 -0.7916
 2527SOL    HW1 9022   7.713   1.562   1.663  0.3508  0.3668 -0.9056
 2527SOL    HW2 9023   7.823   1.461   1.685 -1.0191 -1.1697 -0.9059
 2528SOL     OW 9024   0.013   2.982  10.648 -0.0054  0.0092  0.3540
 2528SOL    HW1 9025  -0.003   3.076  10.647  1.5852  0.3368 -2.3391
 2528SOL    HW2 9026   0.066   2.968  10.727 -0.2183  1.3749  0.7657
 2529SOL     OW 9027   6.052   1.232  12.078 -0.1692 -0.1251  0.1080
 2529SOL    HW1 9028   6.048   1.202  12.168  1.0873  0.1823  0.2841
 2529SOL    HW2 9029   6.143   1.256  12.064 -0.3255 -0.2266 -1.2671
 2530SOL     OW 9030   5.753   3.823   8.568  0.1177 -0.1208  0.5953
 2530SOL    HW1 9031   5.787   3.868   8.491  0.3072 -0.4984  0.4578
 2530SOL    HW2 9032   5.678   3.875   8.595 -0.5678 -0.5476 -0.4407
 2531SOL     OW 9033   1.423   5.517   5.654  0.0831 -0.0493  0.1108
 2531SOL    HW1 9034   1.484   5.454   5.694  0.7837 -0.3699 -1.4091
 2531SOL    HW2 9035   1.390   5.568   5.728  0.9686 -0.9338  1.1539
 2532SOL     OW 9036   3.745   4.300   1.987  0.0338  0.0431  0.0910
 2532SOL    HW1 9037   3.734   4.262   1.900 -0.1669 -2.8982  1.2607
 2532SOL    HW2 9038   3.839   4.319   1.993  0.3119 -1.0773 -0.3271
 2533SOL     OW 9039   2.333   7.398   7.061 -0.1118 -0.3052 -0.2140
 2533SOL    HW1 9040   2.260   7.450   7.095 -0.6383 -1.3298  0.2562
 2533SOL    HW2 9041   2.411   7.451   7.081 -0.6848  0.6039 -0.3439
 2534SOL     OW 9042   6.468   4.779   7.758 -0.3242 -0.6349  0.1317
 2534SOL    HW1 9043   6.392   4.822   7.720 -0.5935 -1.6712 -0.5500
 2534SOL    HW2 9044   6.519   4.750   7.682  0.1072 -1.0504  0.5752
 2535SOL     OW 9045   6.995   7.622   9.243  0.4499  0.0037  0.2913
 2535SOL    HW1 9046   7.050   7.548   9.270  0.2366 -0.1244  0.3746
 2535SOL    HW2 9047   7.042   7.699   9.274  0.2810 -0.1335  0.8961
 2536SOL     OW 9048   5.267   6.098  11.120  0.2162  0.3083  0.1585
 2536SOL    HW1 9049   5.330   6.166  11.146  1.2275 -1.2259  1.9505
 2536SOL    HW2 9050   5.320   6.031  11.078 -0.6887  0.3036 -1.0147
 2537SOL     OW 9051   4.046   3.222   0.694  0.3406 -0.2015 -0.0060
 2537SOL    HW1 9052   4.140   3.207   0.684  0.5145  1.0844 -0.4737
 2537SOL    HW2 9053   4.035   3.316   0.682 -0.8306 -0.0961  1.4830
 2538SOL     OW 9054   0.684   6.520   7.139 -0.3572  0.1683  0.4830
 2538SOL    HW1 9055   0.749   6.492   7.076  1.4026  1.3386  1.6802
 2538SOL    HW2 9056   0.721   6.495   7.224 -2.1331 -0.3745  1.1350
 2539SOL     OW 9057   0.784   3.001   2.711 -0.0733 -0.2361 -0.2401
 2539SOL    HW1 9058   0.743   2.988   2.797  0.1957 -1.0481 -0.2219
 2539SOL    HW2 9059   0.842   2.926   2.701 -1.9354 -1.5377 -2.2077
 2540SOL     OW 9060   6.418   5.915   4.617 -0.5746  0.3133 -0.4635
 2540SOL    HW1 9061   6.512   5.931   4.606 -0.0540 -0.7102  1.9638
 2540SOL    HW2 9062   6.396   5.956   4.700 -1.7041 -1.5949  0.2364
 2541SOL     OW 9063   3.387   7.027   8.722 -0.3190  0.1274  0.2040
 2541SOL    HW1 9064   3.377   7.107   8.773  0.3799  0.0709  0.4409
 2541SOL    HW2 9065   3.308   7.023   8.668 -1.9549 -0.6998  2.4902
 2542SOL     OW 9066   4.158   0.918  12.298 -0.2651 -0.4119  0.3564
 2542SOL    HW1 9067   4.098   0.990  12.319  0.2298  0.3161 -0.6658
 2542SOL    HW2 9068   4.106   0.860  12.242 -0.4739 -0.5613  0.6966
 2543SOL     OW 9069   6.899   5.724   3.793  0.2711  0.6026 -0.4641
 2543SOL    HW1 9070   6.859   5.785   3.855 -0.6842  0.4825 -0.9424
 2543SOL    HW2 9071   6.984   5.762   3.773  0.0145  1.3613 -0.1407
 2544SOL     OW 9072   0.008   2.569   9.683  0.2880 -0.6985  0.2511
 2544SOL    HW1 9073   0.059   2.494   9.711  1.5986  0.0465 -0.0387
 2544SOL    HW2 9074   0.073   2.631   9.650 -0.8456  0.1085 -0.5627
 2545SOL     OW 9075   4.995   3.587   7.790  0.2996 -0.0885 -0.3698
 2545SOL    HW1 9076   4.925   3.576   7.725 -0.9515 -0.3584  0.9596
 2545SOL    HW2 9077   4.987   3.678   7.818  1.5222  0.3372 -1.3014
 2546SOL     OW 9078   3.625   2.168   4.466 -0.6107  0.6338  0.6940
 2546SOL    HW1 9079   3.649   2.155   4.374  0.1216 -1.9562  1.1617
 2546SOL    HW2 9080   3.689   2.230   4.499 -0.8119  1.5054 -0.4848
 2547SOL     OW 9081   7.659   5.221   8.211  0.0268  0.4447  0.1816
 2547SOL    HW1 9082   7.689   5.163   8.281 -1.2095  0.6870  0.9476
 2547SOL    HW2 9083   7.704   5.190   8.132 -1.0191 -1.9452  0.4405
 2548SOL     OW 9084   1.803   1.743   7.285 -0.4149 -0.5070  0.3494
 2548SOL    HW1 9085   1.833   1.654   7.267 -1.1336 -0.3932 -1.5857
 2548SOL    HW2 9086   1.800   1.785   7.200 -0.3152  1.3228  1.2089
 2549SOL     OW 9087   1.852   6.972  11.346 -0.1192 -0.2695 -0.0403
 2549SOL    HW1 9088   1.935   7.009  11.316  0.3052  0.6716  2.0567
 2549SOL    HW2 9089   1.799   7.048  11.372  0.1517 -0.9285  2.8469
 2550SOL     OW 9090   6.134   5.835   0.770  0.1594 -0.1786  0.5252
 2550SOL    HW1 9091   6.088   5.753   0.791  1.4584 -1.0596  0.0780
 2550SOL    HW2 9092   6.221   5.824   0.809  0.0511  1.4003  1.2698
 2551SOL     OW 9093   4.800   5.621   1.897 -0.1094  0.2798  0.6385
 2551SOL    HW1 9094   4.824   5.571   1.975 -0.7043  1.9517  1.9630
 2551SOL    HW2 9095   4.704   5.623   1.898 -0.3796 -2.8102 -2.2891
 2552SOL     OW 9096   3.415   5.724  11.559  0.6798 -0.3393  0.1235
 2552SOL    HW1 9097   3.380   5.658  11.618 -0.8198 -0.5861 -0.9712
 2552SOL    HW2 9098   3.503   5.694  11.538  0.6660 -1.0444  1.0196
 2553SOL     OW 9099   3.198   2.071   2.927  0.1656 -0.2868  0.1941
 2553SOL    HW1 9100   3.192   2.063   2.832  0.2412  1.2095  0.0282
 2553SOL    HW2 9101   3.147   1.998   2.962  0.3722 -1.0137 -0.9887
 2554SOL     OW 9102   6.215   1.319   4.749 -0.2613 -0.4036  0.4105
 2554SOL    HW1 9103   6.294   1.372   4.734  1.6145 -3.3397 -1.0089
 2554SOL    HW2 9104   6.144   1.371   4.712  1.2753  1.5680  0.0463
 2555SOL     OW 9105   6.996   1.866   8.292 -0.7826 -0.1864  0.5720
 2555SOL    HW1 9106   7.091   1.856   8.290 -0.8510 -0.8562  0.4116
 2555SOL    HW2 9107   6.981   1.946   8.343 -0.1731 -0.6494  1.5102
 2556SOL     OW 9108   0.283   4.348   0.955  0.7050 -0.4372  0.3206
 2556SOL    HW1 9109   0.337   4.419   0.921 -0.2240  0.3264  0.3949
 2556SOL    HW2 9110   0.206   4.392   0.992  0.1113 -1.4776  0.3685
 2557SOL     OW 9111   1.218   3.457   1.086  0.0994 -0.1147  0.0262
 2557SOL    HW1 9112   1.314   3.459   1.093  0.3482 -2.2884 -1.4108
 2557SOL    HW2 9113   1.188   3.423   1.170  0.5987  0.4076  0.4193
 2558SOL     OW 9114   6.868   7.381   6.987 -0.2213 -0.1793  0.4552
 2558SOL    HW1 9115   6.776   7.407   6.989 -0.3330 -0.5486  2.4419
 2558SOL    HW2 9116   6.871   7.304   6.930 -0.7423  1.0438 -1.3185
 2559SOL     OW 9117   4.660   7.821   7.349 -0.2492  0.3810  0.1502
 2559SOL    HW1 9118   4.736   7.769   7.376 -1.4344 -0.7730  1.4683
 2559SOL    HW2 9119   4.650   7.886   7.419 -1.6575 -0.8103  1.1268
 2560SOL     OW 9120   5.119   1.228  11.874 -0.0222 -0.1898 -0.2497
 2560SOL    HW1 9121   5.072   1.148  11.898  1.6499 -0.9482  0.7030
 2560SOL    HW2 9122   5.122   1.227  11.779 -2.0003 -0.0230 -0.3679
 2561SOL     OW 9123   2.540   3.806   0.074  0.7040  0.3003  0.2301
 2561SOL    HW1 9124   2.615   3.864   0.062 -0.1391  1.6003  1.0159
 2561SOL    HW2 9125   2.507   3.790  -0.015  1.3352  0.4961 -0.0435
 2562SOL     OW 9126   3.232   7.290   8.450  0.1419 -0.8414  0.3619
 2562SOL    HW1 9127   3.291   7.283   8.375  0.5118  0.0540  0.5514
 2562SOL    HW2 9128   3.219   7.384   8.461 -0.6361 -0.9965  0.8631
 2563SOL     OW 9129   0.871   0.861   6.654  0.1308 -0.3967  0.5412
 2563SOL    HW1 9130   0.877   0.808   6.574 -0.1369  0.7164 -0.2408
 2563SOL    HW2 9131   0.962   0.877   6.678  0.2138 -0.7316  0.4606
 2564SOL     OW 9132   1.048   5.125   9.454 -0.0979 -0.1822 -0.5432
 2564SOL    HW1 9133   1.109   5.197   9.447 -0.7138  0.3529 -0.5077
 2564SOL    HW2 9134   0.974   5.150   9.398  0.3997 -1.5506 -1.9157
 2565SOL     OW 9135   4.413   6.751   7.342 -0.5545  0.0053  0.2238
 2565SOL    HW1 9136   4.464   6.670   7.342 -0.9524 -0.2568 -0.7355
 2565SOL    HW2 9137   4.382   6.760   7.433  1.0010  0.0623  0.7806
 2566SOL     OW 9138   7.382   7.341   6.254 -0.2612 -0.3176  0.2634
 2566SOL    HW1 9139   7.454   7.403   6.241  0.5888 -1.7272 -2.5298
 2566SOL    HW2 9140   7.303   7.390   6.227  0.0929  0.2071  0.1591
 2567SOL     OW 9141   4.003   0.865   1.660 -0.6722 -0.1968  0.5293
 2567SOL    HW1 9142   3.949   0.937   1.629  1.1916  0.7808 -0.6014
 2567SOL    HW2 9143   3.952   0.786   1.640 -1.5330  0.6681 -0.8085
 2568SOL     OW 9144   3.760   3.679   2.376 -0.4890  0.0467  0.0030
 2568SOL    HW1 9145   3.724   3.644   2.457  0.1012  1.1352  0.7520
 2568SOL    HW2 9146   3.772   3.772   2.392  1.0920  0.0195 -0.7857
 2569SOL     OW 9147   7.011   0.086   9.347  0.4041  0.4823 -0.3123
 2569SOL    HW1 9148   7.024   0.169   9.301 -0.8894  2.3672  2.4572
 2569SOL    HW2 9149   7.026   0.107   9.439 -0.3902 -2.2682  0.5352
 2570SOL     OW 9150   0.865   4.215   2.341  0.8431  0.3987  0.0664
 2570SOL    HW1 9151   0.914   4.138   2.369  1.0358 -0.6183 -2.7334
 2570SOL    HW2 9152   0.774   4.187   2.339  0.5197  1.1873  1.7837
 2571SOL     OW 9153   1.848   0.983   7.572  0.7137 -0.5500  0.0808
 2571SOL    HW1 9154   1.772   0.925   7.583  0.4265  0.0065  1.0643
 2571SOL    HW2 9155   1.898   0.941   7.502 -0.1600 -1.2812 -0.1398
 2572SOL     OW 9156   6.701   6.125   4.226 -0.5517  0.2015  0.3678
 2572SOL    HW1 9157   6.686   6.219   4.231  0.1372  0.2454  2.4365
 2572SOL    HW2 9158   6.613   6.087   4.233 -0.7905  0.6722 -0.0008
 2573SOL     OW 9159   5.639   4.198   7.820 -0.3960  0.2889  0.2866
 2573SOL    HW1 9160   5.634   4.262   7.891 -3.4308  0.8470 -0.3247
 2573SOL    HW2 9161   5.676   4.247   7.747 -0.0935  0.5476  0.6065
 2574SOL     OW 9162   2.486   7.915  11.617 -0.1631  0.2776  0.1556
 2574SOL    HW1 9163   2.580   7.931  11.619 -0.0487 -0.2819 -0.3511
 2574SOL    HW2 9164   2.447   8.000  11.637  0.4488 -0.0676  3.3631
 2575SOL     OW 9165   2.088   4.882   6.141  0.0428 -1.0882  0.1996
 2575SOL    HW1 9166   2.120   4.809   6.193 -0.0872  0.2451  2.2804
 2575SOL    HW2 9167   1.999   4.857   6.116  0.3016 -1.9755  0.1412
 2576SOL     OW 9168   6.633   2.703  12.173 -0.0452 -0.0782  0.2259
 2576SOL    HW1 9169   6.579   2.743  12.105  0.8193 -2.0106 -1.7017
 2576SOL    HW2 9170   6.581   2.713  12.253 -1.7455  1.0346 -0.9472
 2577SOL     OW 9171   3.690   4.009   6.838  0.9218  0.0318 -0.7686
 2577SOL    HW1 9172   3.782   4.028   6.858  1.2806 -1.1373 -1.2436
 2577SOL    HW2 9173   3.692   3.925   6.793 -0.3673  0.1216 -1.0277
 2578SOL     OW 9174   1.930   2.147   3.161 -0.3161 -0.8682 -0.6197
 2578SOL    HW1 9175   2.011   2.110   3.127  1.1265  0.8315  0.7154
 2578SOL    HW2 9176   1.878   2.168   3.084  1.1580 -0.6781 -1.5908
 2579SOL     OW 9177   3.787   4.609   2.726  0.2032 -0.2355  0.0796
 2579SOL    HW1 9178   3.724   4.565   2.669 -1.1095 -0.2717  1.4836
 2579SOL    HW2 9179   3.777   4.565   2.810  0.0673  1.6218  1.0850
 2580SOL     OW 9180   0.401   5.827   8.225 -0.1203 -0.6553  0.1442
 2580SOL    HW1 9181   0.367   5.813   8.313 -1.1503  0.4882 -0.0443
 2580SOL    HW2 9182   0.442   5.744   8.201 -0.5646 -1.2404  1.3762
 2581SOL     OW 9183   2.079   3.315   5.083  0.3821  0.2021  0.2006
 2581SOL    HW1 9184   1.991   3.353   5.085  0.7875  1.1606  0.8773
 2581SOL    HW2 9185   2.088   3.280   4.995 -1.3517 -1.5981  0.6783
 2582SOL     OW 9186   2.918   0.725   0.380 -0.3115 -0.0154 -0.2068
 2582SOL    HW1 9187   2.831   0.689   0.363  0.1165 -0.7172 -1.0176
 2582SOL    HW2 9188   2.977   0.652   0.363  0.5101  0.7598 -0.7866
 2583SOL     OW 9189   3.744   5.364   5.688  0.4236  0.3868 -0.3923
 2583SOL    HW1 9190   3.671   5.323   5.734  0.5872  2.7839  2.2781
 2583SOL    HW2 9191   3.822   5.325   5.727  0.6165 -0.5497 -1.6549
 2584SOL     OW 9192   1.405   6.879  10.289  0.6102 -0.3555  0.8058
 2584SOL    HW1 9193   1.441   6.798  10.255  0.4950  0.5400 -1.6680
 2584SOL    HW2 9194   1.391   6.934  10.212 -0.6839  1.4805  2.2284
 2585SOL     OW 9195   6.899   0.377  11.100  0.1872  0.4512 -0.1436
 2585SOL    HW1 9196   6.875   0.292  11.136 -0.3712 -0.5924 -2.8115
 2585SOL    HW2 9197   6.906   0.434  11.177  0.9222 -2.0355  1.7693
 2586SOL     OW 9198   6.670   0.753  11.812  0.0053  0.3266  0.0700
 2586SOL    HW1 9199   6.708   0.808  11.880  1.0020 -0.2776  0.0255
 2586SOL    HW2 9200   6.743   0.702  11.779 -0.7131 -0.3217 -0.5657
 2587SOL     OW 9201   2.204   3.541   4.344  0.1032  0.5349 -0.3020
 2587SOL    HW1 9202   2.187   3.471   4.282  0.2775 -0.2496  0.5140
 2587SOL    HW2 9203   2.118   3.569   4.373  0.0473  0.2578 -0.1980
 2588SOL     OW 9204   2.237   1.972   8.616  0.3002  0.3723 -0.1962
 2588SOL    HW1 9205   2.260   2.065   8.624  0.0864  0.2946  1.9965
 2588SOL    HW2 9206   2.313   1.926   8.650 -0.4538 -0.1478  0.8312
 2589SOL     OW 9207   0.403   7.265  11.261  0.0124  0.0278 -0.2633
 2589SOL    HW1 9208   0.328   7.322  11.278  0.4591  0.4788  0.2420
 2589SOL    HW2 9209   0.444   7.302  11.182  1.9888  2.2744  1.6243
 2590SOL     OW 9210   6.698   5.899   4.978  0.3052  0.5975 -0.2133
 2590SOL    HW1 9211   6.624   5.845   5.008  0.0100  0.5087 -1.0653
 2590SOL    HW2 9212   6.718   5.956   5.052 -0.9271  0.9435 -0.1180
 2591SOL     OW 9213   6.081   2.950  10.433 -0.2586 -0.5139 -0.6427
 2591SOL    HW1 9214   6.012   2.939  10.499  0.9057 -0.7303  0.5683
 2591SOL    HW2 9215   6.111   2.861  10.415 -1.1493 -0.5384 -2.1352
 2592SOL     OW 9216   0.910   1.041  11.444 -0.0543  0.0916 -0.7799
 2592SOL    HW1 9217   0.940   1.055  11.534  0.1600  0.9469 -0.9702
 2592SOL    HW2 9218   0.843   1.108  11.430  0.7204  0.7292 -1.6100
 2593SOL     OW 9219   1.483   5.541   9.709  0.2623  0.5650  0.0398
 2593SOL    HW1 9220   1.505   5.474   9.774 -1.2704 -0.7135 -0.7000
 2593SOL    HW2 9221   1.389   5.554   9.719 -0.0510  0.1786 -2.0508
 2594SOL     OW 9222   7.354   7.214  12.201 -0.0488 -0.4198  0.2622
 2594SOL    HW1 9223   7.387   7.282  12.143 -1.2102 -0.9004 -1.0308
 2594SOL    HW2 9224   7.427   7.153  12.212  0.6357  0.4286  0.5103
 2595SOL     OW 9225   2.511   5.936   4.792 -0.2067 -0.2087 -0.2408
 2595SOL    HW1 9226   2.502   5.841   4.793 -0.4568 -0.2066  1.5767
 2595SOL    HW2 9227   2.538   5.957   4.702 -2.0143 -1.7966 -1.2171
 2596SOL     OW 9228   7.235   0.759   8.309  0.0099 -0.0978  0.3294
 2596SOL    HW1 9229   7.216   0.804   8.227 -1.6181 -0.0839  0.6648
 2596SOL    HW2 9230   7.328   0.738   8.305  0.0328  0.2128 -1.3596
 2597SOL     OW 9231   0.114   7.316   6.737 -0.1601  0.5186  0.3642
 2597SOL    HW1 9232   0.078   7.405   6.736 -0.7017  0.3052  0.3091
 2597SOL    HW2 9233   0.047   7.263   6.694  1.2992  0.4855 -1.9999
 2598SOL     OW 9234   1.992   1.171   1.774  0.0858 -0.3319 -0.3168
 2598SOL    HW1 9235   2.037   1.248   1.738  1.2397 -0.0069  1.6897
 2598SOL    HW2 9236   1.996   1.183   1.869 -3.1753 -0.9506  0.0141
 2599SOL     OW 9237   7.212   4.314   8.436  0.2860  0.2208  0.4927
 2599SOL    HW1 9238   7.273   4.242   8.450  2.1889  1.7403  0.5053
 2599SOL    HW2 9239   7.129   4.272   8.414  1.4053 -1.9408  0.1594
 2600SOL     OW 9240   3.893   7.223   2.459  0.5500 -0.5159  0.8810
 2600SOL    HW1 9241   3.968   7.165   2.461  0.3503 -0.7554  1.4482
 2600SOL    HW2 9242   3.818   7.168   2.481  0.0487 -0.5001 -0.6350
 2601SOL     OW 9243   0.687   4.457   4.284 -0.3645  0.5312 -0.0554
 2601SOL    HW1 9244   0.703   4.530   4.344  0.1956  0.9994 -0.7509
 2601SOL    HW2 9245   0.703   4.494   4.197 -1.5928 -0.0177 -0.5320
 2602SOL     OW 9246   0.720   1.113   2.927  0.1863  0.1115  0.8127
 2602SOL    HW1 9247   0.769   1.033   2.908  1.1842  0.7261  0.7345
 2602SOL    HW2 9248   0.784   1.183   2.920 -1.1410  1.2307 -1.6390
 2603SOL     OW 9249   2.694   0.422  12.076 -0.1155 -0.0682  0.2533
 2603SOL    HW1 9250   2.786   0.442  12.092  0.1007 -1.0283  0.2986
 2603SOL    HW2 9251   2.673   0.468  11.995  0.5783 -0.3221 -0.0778
 2604SOL     OW 9252   4.880   7.545  12.314 -0.0197 -0.2606 -0.1955
 2604SOL    HW1 9253   4.906   7.495  12.391 -0.5103 -0.4461 -0.1537
 2604SOL    HW2 9254   4.915   7.633  12.330  0.4290 -0.4598 -0.0565
 2605SOL     OW 9255   7.124   5.187  11.321 -0.5455 -0.2563 -0.4310
 2605SOL    HW1 9256   7.075   5.162  11.400 -2.7084  0.5672 -1.4293
 2605SOL    HW2 9257   7.094   5.275  11.301  1.5688  0.3892 -1.0277
 2606SOL     OW 9258   5.619   6.138   2.054 -0.1471  0.4863 -0.3104
 2606SOL    HW1 9259   5.599   6.146   2.147  0.7843 -0.0116 -0.0493
 2606SOL    HW2 9260   5.651   6.224   2.028  1.0792  0.2089  0.2266
 2607SOL     OW 9261   3.284   6.199  11.407  0.3731  0.7485  0.2152
 2607SOL    HW1 9262   3.282   6.191  11.502  0.0436 -0.1940  0.1361
 2607SOL    HW2 9263   3.198   6.169  11.379  0.9608 -0.3358 -0.4765
 2608SOL     OW 9264   1.062   0.971   1.594 -0.0901  0.6362 -0.2517
 2608SOL    HW1 9265   1.124   0.955   1.524 -1.5246 -1.8579 -1.0583
 2608SOL    HW2 9266   1.102   0.933   1.672 -0.0772  0.1377 -0.5041
 2609SOL     OW 9267   5.376   5.421   5.429  0.3171  0.0792  0.1554
 2609SOL    HW1 9268   5.336   5.334   5.435 -0.6970  0.4327 -0.9612
 2609SOL    HW2 9269   5.378   5.439   5.335  3.1433  0.1055  0.1453
 2610SOL     OW 9270   6.619   0.610   7.583  0.3296 -0.5702 -0.0339
 2610SOL    HW1 9271   6.710   0.630   7.603  0.3886 -1.6218  0.8319
 2610SOL    HW2 9272   6.587   0.686   7.535  1.3528  0.2645  0.5853
 2611SOL     OW 9273   5.309   5.038   8.770 -0.9081 -0.3806  0.3477
 2611SOL    HW1 9274   5.362   5.108   8.809 -1.0689 -0.8258  1.3886
 2611SOL    HW2 9275   5.231   5.082   8.737  0.7262  0.5982 -2.7408
 2612SOL     OW 9276   7.452   5.860  11.226 -0.4681 -0.4265  0.1109
 2612SOL    HW1 9277   7.527   5.849  11.168 -0.6406  0.8333 -0.3944
 2612SOL    HW2 9278   7.479   5.927  11.289 -1.0206 -0.2474  0.1693
 2613SOL     OW 9279   0.695   5.407   6.132  0.5068  0.8046 -0.0202
 2613SOL    HW1 9280   0.691   5.312   6.115 -0.7376  1.1983 -2.4510
 2613SOL    HW2 9281   0.782   5.433   6.101  0.5626  0.5677 -0.0699
 2614SOL     OW 9282   5.966   5.423   6.566  0.0702  0.3392  0.0887
 2614SOL    HW1 9283   6.062   5.426   6.562  0.3561 -1.9768  2.4788
 2614SOL    HW2 9284   5.941   5.360   6.499  0.1748  1.0006 -0.5892
 2615SOL     OW 9285   0.088   3.658  11.266  0.1583  0.6700 -0.1197
 2615SOL    HW1 9286   0.004   3.679  11.225  0.4523  1.1026 -0.4952
 2615SOL    HW2 9287   0.063   3.610  11.345 -0.3820 -1.9335 -1.7397
 2616SOL     OW 9288   4.573   7.929  12.196  0.1322 -0.5924 -0.5297
 2616SOL    HW1 9289   4.629   7.999  12.164 -0.2132 -0.0295  0.0572
 2616SOL    HW2 9290   4.608   7.908  12.283 -0.3898 -0.4156 -0.2679
 2617SOL     OW 9291   0.163   2.151   6.172 -0.1838 -0.3738  0.3536
 2617SOL    HW1 9292   0.079   2.170   6.215 -0.8328 -2.1390 -0.0782
 2617SOL    HW2 9293   0.142   2.149   6.079  0.5204  0.0014  0.1866
 2618SOL     OW 9294   6.472   5.755   1.887  0.2576 -0.0140 -0.0558
 2618SOL    HW1 9295   6.504   5.665   1.887  0.6981  0.1355 -0.8540
 2618SOL    HW2 9296   6.497   5.790   1.802  1.2334  1.2578  0.7066
 2619SOL     OW 9297   5.178   2.202   2.002  0.3165 -0.2473  0.6967
 2619SOL    HW1 9298   5.272   2.221   2.000  0.3362 -0.4225 -0.2742
 2619SOL    HW2 9299   5.136   2.281   1.969  0.2793 -1.0171 -1.2483
 2620SOL     OW 9300   4.588   3.641   0.321 -0.2587 -0.2917 -0.3119
 2620SOL    HW1 9301   4.614   3.563   0.371  0.6501 -0.0323 -0.3801
 2620SOL    HW2 9302   4.657   3.653   0.257 -1.5698 -0.8105 -1.8924
 2621SOL     OW 9303   5.374   6.490   4.264  0.1091  0.0931  0.1946
 2621SOL    HW1 9304   5.468   6.477   4.258 -0.0573 -0.6905 -1.1019
 2621SOL    HW2 9305   5.337   6.402   4.266 -0.7782  0.2348 -3.3824
 2622SOL     OW 9306   2.125   2.473   7.267 -0.0678 -0.5679  0.2913
 2622SOL    HW1 9307   2.032   2.460   7.249 -0.2402  1.3165 -0.4265
 2622SOL    HW2 9308   2.166   2.472   7.180  0.2833  0.5157  0.4268
 2623SOL     OW 9309   0.144   6.800  12.054 -1.0447  0.0408  0.2062
 2623SOL    HW1 9310   0.170   6.799  11.962  1.8715 -1.1764  0.9491
 2623SOL    HW2 9311   0.125   6.892  12.073  0.1310  0.5849 -1.1481
 2624SOL     OW 9312   2.338   2.433   9.091 -0.5171  0.2992 -0.6990
 2624SOL    HW1 9313   2.275   2.477   9.148 -1.6973 -0.7754 -1.1322
 2624SOL    HW2 9314   2.353   2.495   9.019 -0.8369  0.6888 -0.4312
 2625SOL     OW 9315   7.791   7.249   0.391 -0.2411 -0.2061 -0.6235
 2625SOL    HW1 9316   7.874   7.293   0.372 -0.8153  0.3598 -1.9245
 2625SOL    HW2 9317   7.728   7.320   0.402 -0.3000 -0.5679  1.8772
 2626SOL     OW 9318   3.481   2.015  12.231 -0.2558 -0.0974  0.3446
 2626SOL    HW1 9319   3.476   1.920  12.245 -0.8390  0.1082  1.6846
 2626SOL    HW2 9320   3.531   2.047  12.306  0.7888  0.5563 -0.6205
 2627SOL     OW 9321   0.234   0.866   4.789  0.4974 -0.5588  0.3407
 2627SOL    HW1 9322   0.295   0.877   4.716 -0.2819 -0.0472 -0.2501
 2627SOL    HW2 9323   0.264   0.928   4.855  1.6009 -1.4839  0.7460
 2628SOL     OW 9324   1.295   1.485   7.621  0.1102 -0.1957  0.1780
 2628SOL    HW1 9325   1.373   1.526   7.583 -0.9598 -0.8355 -2.9917
 2628SOL    HW2 9326   1.330   1.419   7.680  1.9350  0.8730  0.3798
 2629SOL     OW 9327   1.889   2.128  11.380  0.1576  0.1398  0.0863
 2629SOL    HW1 9328   1.899   2.176  11.463 -1.9890 -3.0353  2.4701
 2629SOL    HW2 9329   1.972   2.083  11.367  0.6685  1.0253  0.2625
 2630SOL     OW 9330   5.891   0.359   7.539  0.8857  0.9444 -0.4507
 2630SOL    HW1 9331   5.847   0.357   7.454  2.0890  0.7821 -1.1041
 2630SOL    HW2 9332   5.921   0.269   7.553 -1.0655  0.4819  1.1516
 2631SOL     OW 9333   6.350   3.494   7.525  0.1723 -0.5582 -0.2256
 2631SOL    HW1 9334   6.437   3.510   7.563 -0.2654 -1.6962  1.3868
 2631SOL    HW2 9335   6.305   3.578   7.532  0.9632 -0.0915 -0.5951
 2632SOL     OW 9336   0.662   1.954   2.166 -0.1970 -0.3088 -0.1946
 2632SOL    HW1 9337   0.605   1.954   2.089 -2.4144 -2.4662  1.2871
 2632SOL    HW2 9338   0.652   1.866   2.203  1.6259  0.3030  1.9895
 2633SOL     OW 9339   0.000   7.574   6.717  0.4495  0.0199  0.0270
 2633SOL    HW1 9340  -0.050   7.576   6.636 -0.5350 -0.3218  0.6099
 2633SOL    HW2 9341   0.050   7.656   6.717 -2.0447  1.6465  0.5921
 2634SOL     OW 9342   7.543   1.660   7.238 -0.3059 -0.4464  0.1631
 2634SOL    HW1 9343   7.525   1.693   7.151  0.2393 -0.9038 -0.1349
 2634SOL    HW2 9344   7.610   1.719   7.273  1.5931 -1.8556 -0.8440
 2635SOL     OW 9345   1.032   2.711   4.463 -0.3363  0.1341 -0.4031
 2635SOL    HW1 9346   0.967   2.777   4.441 -2.0277 -1.2894  0.0404
 2635SOL    HW2 9347   1.058   2.673   4.379 -0.7023  0.1529 -0.5236
 2636SOL     OW 9348   6.770   4.332   0.453  0.1803  0.3860 -0.4261
 2636SOL    HW1 9349   6.720   4.346   0.373 -1.0023 -1.0743 -0.0005
 2636SOL    HW2 9350   6.717   4.270   0.503 -0.3548  3.0371  2.6014
 2637SOL     OW 9351   0.295   4.435  12.319 -0.0257  0.4107  0.3555
 2637SOL    HW1 9352   0.237   4.504  12.286  0.1589 -0.3091 -1.5976
 2637SOL    HW2 9353   0.264   4.355  12.277  2.3522 -0.0012 -0.7723
 2638SOL     OW 9354   3.704   6.910   9.030 -0.0585 -0.1014 -0.4815
 2638SOL    HW1 9355   3.749   6.956   9.101 -0.5553  1.0339 -0.8759
 2638SOL    HW2 9356   3.727   6.818   9.042  0.2455  0.1362  0.8570
 2639SOL     OW 9357   4.794   1.019   0.394  0.6144  0.0551 -0.0215
 2639SOL    HW1 9358   4.735   0.972   0.335 -0.6160  0.3736  0.9030
 2639SOL    HW2 9359   4.777   0.980   0.480  1.3868  0.5297  0.3579
 2640SOL     OW 9360   5.383   6.025   6.643  0.2932  0.3865  0.8041
 2640SOL    HW1 9361   5.363   6.025   6.550  0.4721 -0.1878  0.7571
 2640SOL    HW2 9362   5.458   5.966   6.651  1.0318  1.3524  1.1613
 2641SOL     OW 9363   0.639   0.289   5.354  0.1432 -0.1917  0.9862
 2641SOL    HW1 9364   0.651   0.233   5.277  0.9635  1.0817  0.1626
 2641SOL    HW2 9365   0.660   0.232   5.428 -0.9048 -1.5152  0.3202
 2642SOL     OW 9366   7.374   3.623   6.427  0.3474 -0.6827  0.2108
 2642SOL    HW1 9367   7.348   3.546   6.477 -0.1121 -0.0449  0.9560
 2642SOL    HW2 9368   7.469   3.612   6.415  0.8099 -0.0202  2.7023
 2643SOL     OW 9369   7.260   5.726   8.214  0.5219 -0.1834  0.0946
 2643SOL    HW1 9370   7.282   5.815   8.189  1.1911 -0.5265 -0.5754
 2643SOL    HW2 9371   7.338   5.692   8.258  0.3711 -0.5155  0.1139
 2644SOL     OW 9372   5.190   0.484   5.412  0.8479 -0.2914  0.5428
 2644SOL    HW1 9373   5.126   0.456   5.478 -1.2756  1.6086 -0.5534
 2644SOL    HW2 9374   5.206   0.405   5.360 -0.9502 -0.7742  0.6318
 2645SOL     OW 9375   3.394   2.458   3.699 -0.3603  0.3555  0.0576
 2645SOL    HW1 9376   3.387   2.378   3.751 -2.8815  0.4689  0.0432
 2645SOL    HW2 9377   3.315   2.458   3.645 -0.1063  2.5410 -0.4159
 2646SOL     OW 9378   4.883   6.839  10.639 -0.2476 -0.3929 -0.0355
 2646SOL    HW1 9379   4.807   6.822  10.584 -2.3354  2.4274  1.6729
 2646SOL    HW2 9380   4.857   6.807  10.726  1.5364 -1.5465  0.1204
 2647SOL     OW 9381   6.680   0.666   0.475  0.4160 -0.0138 -0.2230
 2647SOL    HW1 9382   6.751   0.642   0.534  0.0949  0.5059  0.3906
 2647SOL    HW2 9383   6.624   0.588   0.472 -1.0219  0.7642  2.3480
 2648SOL     OW 9384   0.259   4.915  11.866  0.4159  0.1440  0.1463
 2648SOL    HW1 9385   0.223   4.851  11.928 -1.3225  0.6516 -0.2793
 2648SOL    HW2 9386   0.213   4.997  11.886  0.4864  0.5410 -1.1985
 2649SOL     OW 9387   7.171   3.468   4.436 -0.3051  0.0205  0.5961
 2649SOL    HW1 9388   7.254   3.493   4.478  0.2318 -0.5316 -0.1176
 2649SOL    HW2 9389   7.108   3.533   4.468  0.4828  0.6755  0.8556
 2650SOL     OW 9390   6.887   0.675   1.784 -0.0394 -0.5334  0.3778
 2650SOL    HW1 9391   6.828   0.732   1.735  1.3325 -0.7856 -1.7447
 2650SOL    HW2 9392   6.832   0.602   1.812 -0.7684 -0.8984 -1.7512
 2651SOL     OW 9393   1.047   5.906  10.006  0.2121  0.1789  0.4410
 2651SOL    HW1 9394   1.140   5.907   9.984  1.3096 -3.0344  3.8036
 2651SOL    HW2 9395   1.043   5.932  10.099 -2.0224 -1.1294  0.8051
 2652SOL     OW 9396   0.492   3.306   4.011 -0.8234 -0.3274 -0.2263
 2652SOL    HW1 9397   0.579   3.330   3.979 -0.5073 -0.9996  0.0875
 2652SOL    HW2 9398   0.510   3.256   4.091 -1.5302  0.0824  0.1913
 2653SOL     OW 9399   0.800   3.725   1.257 -0.0070 -0.9006 -0.2243
 2653SOL    HW1 9400   0.765   3.800   1.305  2.8285 -0.0638  0.7400
 2653SOL    HW2 9401   0.782   3.745   1.165 -0.3133  0.4291  0.0981
 2654SOL     OW 9402   5.971   7.215  10.553 -0.5156  0.2581 -0.6850
 2654SOL    HW1 9403   6.027   7.169  10.616 -0.0527  0.8035 -0.6896
 2654SOL    HW2 9404   5.928   7.145  10.505 -0.9099 -0.1708  0.2607
 2655SOL     OW 9405   2.267   6.642   8.884 -0.0691  0.2469 -0.7015
 2655SOL    HW1 9406   2.229   6.717   8.838 -0.4059 -0.2201 -1.1965
 2655SOL    HW2 9407   2.244   6.655   8.976 -0.4833  0.5309 -0.8445
 2656SOL     OW 9408   1.527   3.395   5.950 -0.3119 -0.7803 -0.6311
 2656SOL    HW1 9409   1.485   3.428   5.870 -0.4286  3.8148  1.0533
 2656SOL    HW2 9410   1.454   3.374   6.008 -0.4023  1.5962  0.2246
 2657SOL     OW 9411   3.964   1.359   2.074 -0.0891 -0.2229 -0.2091
 2657SOL    HW1 9412   4.023   1.284   2.079 -1.6843 -1.6182 -1.3300
 2657SOL    HW2 9413   3.878   1.321   2.059 -0.8498  1.8709 -1.5709
 2658SOL     OW 9414   0.995   0.544   6.865  0.2690 -0.6491 -0.0770
 2658SOL    HW1 9415   1.048   0.548   6.785 -1.1397 -1.4189 -1.0986
 2658SOL    HW2 9416   0.922   0.486   6.843 -0.6642 -0.1413  1.4782
 2659SOL     OW 9417   6.932   1.569  11.898  0.5840  0.0129 -0.1509
 2659SOL    HW1 9418   6.916   1.641  11.957  0.5840  0.5986 -0.8525
 2659SOL    HW2 9419   6.878   1.497  11.931  1.3161  0.0089  1.1184
 2660SOL     OW 9420   5.700   6.071   4.735 -0.2044 -0.1876 -0.1036
 2660SOL    HW1 9421   5.665   6.154   4.767  2.0385  0.9888 -0.5109
 2660SOL    HW2 9422   5.737   6.091   4.650  0.4759 -1.5903 -0.1717
 2661SOL     OW 9423   6.282   0.931   7.817  0.3741  0.0164 -0.1705
 2661SOL    HW1 9424   6.318   0.996   7.757  0.5157  1.2506  1.2085
 2661SOL    HW2 9425   6.336   0.853   7.803  2.2812  1.1943  0.3961
 2662SOL     OW 9426   7.873   7.726   1.116 -0.1522 -0.0189 -0.0059
 2662SOL    HW1 9427   7.839   7.687   1.036  0.3285  1.5061 -0.9930
 2662SOL    HW2 9428   7.798   7.771   1.155 -0.1827 -0.0046 -0.0808
 2663SOL     OW 9429   2.130   4.041  11.204  0.3310 -0.0545 -0.0539
 2663SOL    HW1 9430   2.052   4.014  11.251 -1.3183 -1.0181 -3.0476
 2663SOL    HW2 9431   2.100   4.113  11.148  1.3740 -0.8441 -1.7085
 2664SOL     OW 9432   6.691   2.774   0.154  0.0360  0.3186 -0.1889
 2664SOL    HW1 9433   6.716   2.704   0.214 -0.8182 -0.5898 -0.8633
 2664SOL    HW2 9434   6.623   2.735   0.099 -0.0671  1.5144 -0.9360
 2665SOL     OW 9435   2.356   2.650   5.452 -0.3601  0.2268  0.1529
 2665SOL    HW1 9436   2.369   2.745   5.455  1.8142  0.0017 -0.2274
 2665SOL    HW2 9437   2.404   2.617   5.528  0.2731 -0.6592 -0.6025
 2666SOL     OW 9438   1.767   2.682   8.978 -0.0618  0.0374  0.6885
 2666SOL    HW1 9439   1.827   2.749   9.013 -1.4551  0.7418  1.8388
 2666SOL    HW2 9440   1.822   2.604   8.968  1.2052  0.8504  1.0210
 2667SOL     OW 9441   0.668   4.326  10.681  0.3452  0.4668  0.0063
 2667SOL    HW1 9442   0.668   4.367  10.594 -0.0056  0.1596 -0.1382
 2667SOL    HW2 9443   0.633   4.394  10.738 -1.1501  0.0568 -0.3891
 2668SOL     OW 9444   1.620   3.609   7.342  0.5593  0.1214  0.2592
 2668SOL    HW1 9445   1.645   3.599   7.250 -0.3588  2.3347 -0.2848
 2668SOL    HW2 9446   1.700   3.634   7.387  0.7758  0.1317 -0.1346
 2669SOL     OW 9447   6.195   3.676   6.062 -0.0026 -0.5087 -0.2275
 2669SOL    HW1 9448   6.209   3.735   5.988  0.3148  1.5482  1.3721
 2669SOL    HW2 9449   6.192   3.734   6.138 -0.6137 -2.5081  1.3538
 2670SOL     OW 9450   2.919   6.314   1.970 -0.3517 -0.0434  0.0373
 2670SOL    HW1 9451   2.952   6.401   1.947 -0.2960  0.4525  1.8443
 2670SOL    HW2 9452   2.944   6.259   1.895  2.5946  0.7905  0.2684
 2671SOL     OW 9453   1.643   4.145   3.386 -0.1996 -0.4694  0.4571
 2671SOL    HW1 9454   1.614   4.139   3.477 -1.0418 -1.1084  0.1593
 2671SOL    HW2 9455   1.661   4.054   3.361  1.2971 -0.1781  0.3674
 2672SOL     OW 9456   1.532   1.021   1.755  0.0725 -0.1242 -0.0336
 2672SOL    HW1 9457   1.528   1.094   1.817 -0.4230 -0.8419  0.7833
 2672SOL    HW2 9458   1.624   1.018   1.728  0.4376 -0.2441  1.1936
 2673SOL     OW 9459   3.076   6.970  10.032 -0.0064 -0.1186 -0.7844
 2673SOL    HW1 9460   3.089   6.908   9.961  0.4357  1.0892 -1.7891
 2673SOL    HW2 9461   3.020   7.039   9.995  0.7832  0.8744 -0.1944
 2674SOL     OW 9462   1.083   7.500   8.010  0.2883 -0.2651 -0.3016
 2674SOL    HW1 9463   1.084   7.474   7.918  1.0826  0.5734 -0.5510
 2674SOL    HW2 9464   1.134   7.432   8.055  2.4486  0.7933 -0.9664
 2675SOL     OW 9465   4.291   0.262   6.073 -0.1312  0.2848 -0.4513
 2675SOL    HW1 9466   4.306   0.352   6.045  1.0010  0.0869 -0.5257
 2675SOL    HW2 9467   4.363   0.242   6.132 -0.5476 -0.4677 -0.1798
 2676SOL     OW 9468   0.333   3.842   6.770 -1.0621 -0.5536  0.4482
 2676SOL    HW1 9469   0.248   3.823   6.810 -1.4131  1.5692  0.8211
 2676SOL    HW2 9470   0.316   3.918   6.714  0.7842  0.5628  1.3236
 2677SOL     OW 9471   7.314   0.147   3.949 -0.5520 -0.0160 -0.0651
 2677SOL    HW1 9472   7.356   0.136   3.864  0.3287  2.7361 -0.0762
 2677SOL    HW2 9473   7.363   0.089   4.007  1.0230  0.5325 -0.7885
 2678SOL     OW 9474   1.896   6.533   5.252 -0.6359 -0.0458  0.5303
 2678SOL    HW1 9475   1.978   6.584   5.255 -0.6265 -0.0703  0.6838
 2678SOL    HW2 9476   1.829   6.595   5.280 -0.9567  0.5478 -1.4203
 2679SOL     OW 9477   4.258   2.257   1.009  0.2233  0.7790 -0.1652
 2679SOL    HW1 9478   4.192   2.188   1.012  1.1763 -0.1629 -0.2609
 2679SOL    HW2 9479   4.314   2.234   0.935  0.7628  1.4617  0.0177
 2680SOL     OW 9480   1.158   6.458   3.126  0.4625 -0.1123 -0.1813
 2680SOL    HW1 9481   1.069   6.439   3.097 -0.5014 -0.1346  2.4881
 2680SOL    HW2 9482   1.197   6.372   3.142  0.1722 -0.0787  0.7533
 2681SOL     OW 9483   4.578   7.832   2.160 -0.1350 -0.0781  0.1799
 2681SOL    HW1 9484   4.552   7.797   2.075 -0.9649 -0.0640  0.4213
 2681SOL    HW2 9485   4.510   7.895   2.182  0.0797 -0.0713  0.8541
 2682SOL     OW 9486   1.366   2.721   4.328 -0.0085 -0.4179  0.3505
 2682SOL    HW1 9487   1.395   2.643   4.374  0.7550 -1.1775 -1.3469
 2682SOL    HW2 9488   1.414   2.793   4.371  0.1065 -0.9937  1.2158
 2683SOL     OW 9489   3.708   5.250   3.243  0.0091 -0.2875 -0.0365
 2683SOL    HW1 9490   3.714   5.269   3.150 -2.4228  1.7990  0.1226
 2683SOL    HW2 9491   3.797   5.266   3.277  0.1811  2.3481 -1.4806
 2684SOL     OW 9492   3.909   5.228   2.786  0.2440 -0.2020 -0.5642
 2684SOL    HW1 9493   3.995   5.269   2.780 -0.4748  1.5023  0.1534
 2684SOL    HW2 9494   3.869   5.244   2.701 -0.8109  2.5113  0.3656
 2685SOL     OW 9495   3.757   5.590   6.571  0.4091  0.0890  0.2611
 2685SOL    HW1 9496   3.680   5.646   6.568 -0.0671 -0.5729 -0.1976
 2685SOL    HW2 9497   3.761   5.558   6.661 -0.1491 -0.2807  0.1564
 2686SOL     OW 9498   0.998   2.952   4.800  0.0871  0.7397  0.3803
 2686SOL    HW1 9499   1.055   2.930   4.726  1.6325 -0.7896  1.9494
 2686SOL    HW2 9500   0.911   2.925   4.772  0.9937 -2.0249 -0.0680
 2687SOL     OW 9501   1.261   7.535   4.708  0.2888 -0.7125  0.2311
 2687SOL    HW1 9502   1.251   7.575   4.622 -1.5058  0.2024  0.8069
 2687SOL    HW2 9503   1.221   7.449   4.700  0.0116 -0.5799  0.1604
 2688SOL     OW 9504   0.832   6.349   8.435  0.4019  0.3589  0.1206
 2688SOL    HW1 9505   0.769   6.416   8.461  1.8559  1.2520  1.4921
 2688SOL    HW2 9506   0.812   6.331   8.343 -1.7139  0.7199  0.4688
 2689SOL     OW 9507   1.975   2.727   5.272 -0.0956 -0.2709  0.1978
 2689SOL    HW1 9508   2.033   2.653   5.289 -0.4003 -0.3389  0.9724
 2689SOL    HW2 9509   2.035   2.801   5.262  0.3534 -0.8873 -2.4258
 2690SOL     OW 9510   2.661   4.698  11.433 -0.5538 -0.2320  0.1827
 2690SOL    HW1 9511   2.631   4.672  11.345  0.1926 -0.5440  0.0173
 2690SOL    HW2 9512   2.580   4.713  11.482 -0.9866  0.4028 -0.6930
 2691SOL     OW 9513   2.783   4.520   6.804 -0.5931 -0.0653  1.0859
 2691SOL    HW1 9514   2.876   4.520   6.826 -0.2357 -0.9992 -0.2818
 2691SOL    HW2 9515   2.745   4.589   6.858  1.1563  1.4161  0.5257
 2692SOL     OW 9516   1.437   0.579   7.462 -0.0531 -1.0004 -0.3300
 2692SOL    HW1 9517   1.404   0.510   7.520 -0.5494 -1.9991 -1.7271
 2692SOL    HW2 9518   1.532   0.577   7.474 -0.2110 -0.4707  1.1842
 2693SOL     OW 9519   2.070   6.989  10.233  0.4448 -0.0044 -0.4393
 2693SOL    HW1 9520   2.030   6.991  10.146 -1.6912  1.2746  0.5199
 2693SOL    HW2 9521   2.013   6.932  10.284  1.8626 -1.0040  0.0909
 2694SOL     OW 9522   1.289   3.119   0.827 -0.0684 -0.2605  0.1363
 2694SOL    HW1 9523   1.305   3.109   0.921  0.8457 -0.0108  0.0149
 2694SOL    HW2 9524   1.207   3.071   0.812  0.7069 -1.8760  0.7399
 2695SOL     OW 9525   7.825   0.488  11.458  0.0045 -0.4749 -0.1364
 2695SOL    HW1 9526   7.879   0.448  11.526 -2.2214 -0.8134  1.5426
 2695SOL    HW2 9527   7.858   0.578  11.451  1.3542 -0.9250  0.1581
 2696SOL     OW 9528   1.124   4.913   3.924 -0.0436  0.6964  0.3954
 2696SOL    HW1 9529   1.205   4.880   3.886 -0.4775 -1.6806  1.3329
 2696SOL    HW2 9530   1.145   4.927   4.016 -0.1770  2.0702  0.2307
 2697SOL     OW 9531   5.250   0.014   2.089 -0.0408 -0.3835 -0.4399
 2697SOL    HW1 9532   5.309  -0.030   2.150 -0.3272 -1.3186 -0.8076
 2697SOL    HW2 9533   5.307   0.051   2.022  0.1772 -0.6735 -0.4158
 2698SOL     OW 9534   5.460   3.089   8.393 -0.0739  0.3832 -0.2798
 2698SOL    HW1 9535   5.532   3.152   8.393  0.1327  0.1853  1.2391
 2698SOL    HW2 9536   5.381   3.143   8.384  0.1812  0.7145 -0.5777
 2699SOL     OW 9537   3.449   2.043   1.059 -0.3830  0.0858 -0.1049
 2699SOL    HW1 9538   3.497   2.090   0.992 -0.8762  0.6477 -0.0701
 2699SOL    HW2 9539   3.375   2.003   1.013 -0.5023  0.1435  0.0347
 2700SOL     OW 9540   0.580   4.728   7.106 -0.2030 -0.3395  0.1904
 2700SOL    HW1 9541   0.510   4.665   7.090 -1.6960  1.3601 -0.3221
 2700SOL    HW2 9542   0.551   4.808   7.062  2.0249  0.4749  0.0550
 2701SOL     OW 9543   0.195   3.556   3.312 -0.0775 -0.2766  0.6806
 2701SOL    HW1 9544   0.146   3.637   3.326 -0.1846 -0.7315  3.5570
 2701SOL    HW2 9545   0.147   3.491   3.364 -0.0899 -2.2575 -1.6744
 2702SOL     OW 9546   5.808   5.071   3.626  0.0184  0.4099 -0.3638
 2702SOL    HW1 9547   5.758   4.991   3.612  1.6467 -0.9737  1.1956
 2702SOL    HW2 9548   5.742   5.140   3.634 -1.5459 -1.1044  0.3004
 2703SOL     OW 9549   3.032   6.532   0.698  0.3183 -0.3522  0.2314
 2703SOL    HW1 9550   2.972   6.506   0.628 -0.2408  2.0513 -0.2683
 2703SOL    HW2 9551   3.096   6.460   0.702 -0.2339 -1.0700 -2.0167
 2704SOL     OW 9552   1.632   4.669   2.784 -0.1121  0.0505  0.7761
 2704SOL    HW1 9553   1.668   4.652   2.696  0.7803 -0.7585  1.2809
 2704SOL    HW2 9554   1.651   4.590   2.834 -0.3167  0.6309  1.8012
 2705SOL     OW 9555   3.702   6.174   0.201 -0.0552 -0.5849  0.2326
 2705SOL    HW1 9556   3.729   6.252   0.248 -1.3229 -0.5391  0.9485
 2705SOL    HW2 9557   3.778   6.116   0.203  0.5366  0.1974  0.6487
 2706SOL     OW 9558   6.693   2.744   2.772 -0.1854  0.7956 -0.7509
 2706SOL    HW1 9559   6.754   2.731   2.699  1.6680  0.4892  0.7667
 2706SOL    HW2 9560   6.632   2.671   2.766  1.3886 -0.5981 -0.6564
 2707SOL     OW 9561   6.734   6.606   1.162 -0.2496 -0.0053 -0.2289
 2707SOL    HW1 9562   6.734   6.699   1.143 -0.1061 -0.2735 -1.6413
 2707SOL    HW2 9563   6.824   6.586   1.187 -0.0525  0.0687 -0.8648
 2708SOL     OW 9564   0.202   0.900   2.719 -0.0382 -0.4491 -0.2338
 2708SOL    HW1 9565   0.124   0.861   2.758  0.8717 -0.6220  1.5064
 2708SOL    HW2 9566   0.227   0.969   2.781  0.7439  0.1180 -1.1647
 2709SOL     OW 9567   7.119   0.871   0.192 -0.1979  0.9141 -0.0416
 2709SOL    HW1 9568   7.080   0.809   0.253 -3.0539  1.7172 -0.8874
 2709SOL    HW2 9569   7.190   0.822   0.150 -0.0512 -0.5710  1.8152
 2710SOL     OW 9570   1.499   4.837   3.517  0.3027 -0.2006  0.3116
 2710SOL    HW1 9571   1.522   4.853   3.426 -1.3605  0.2487 -0.0606
 2710SOL    HW2 9572   1.404   4.850   3.521  0.0674 -1.9405  1.7330
 2711SOL     OW 9573   0.755   4.044  11.862 -0.1959  0.1403 -0.2977
 2711SOL    HW1 9574   0.727   3.952  11.867 -1.1854  0.4918  1.7883
 2711SOL    HW2 9575   0.843   4.044  11.899  0.1774 -0.0804 -1.1609
 2712SOL     OW 9576   0.331   5.680   7.881 -0.1351 -0.6519 -0.0931
 2712SOL    HW1 9577   0.309   5.689   7.788  2.4238 -0.2744 -0.7556
 2712SOL    HW2 9578   0.307   5.764   7.919 -3.3007 -1.5442  0.1879
 2713SOL     OW 9579   1.585   3.143   6.859 -0.3266 -0.1203 -0.0879
 2713SOL    HW1 9580   1.570   3.220   6.804  0.6892  0.0695 -0.1023
 2713SOL    HW2 9581   1.521   3.079   6.827 -0.0086  0.1174 -1.2464
 2714SOL     OW 9582   7.596   2.066   1.673 -0.1027  0.1514 -0.1337
 2714SOL    HW1 9583   7.508   2.102   1.680  0.5499  1.9583 -0.8401
 2714SOL    HW2 9584   7.633   2.107   1.595  1.9934  0.8403  1.1433
 2715SOL     OW 9585   3.939   7.526   2.526  0.5237 -0.4195  0.5555
 2715SOL    HW1 9586   3.961   7.458   2.462  0.7273 -1.3696  1.6090
 2715SOL    HW2 9587   3.844   7.518   2.538  0.5242 -0.4024  0.5717
 2716SOL     OW 9588   1.372   6.710   7.737  0.3615  0.4848  0.5785
 2716SOL    HW1 9589   1.422   6.766   7.797 -1.1992  2.0979  0.4756
 2716SOL    HW2 9590   1.302   6.674   7.791  0.7338 -0.5592  0.3891
 2717SOL     OW 9591   6.971   3.606  11.696 -0.2775  0.5129  0.0978
 2717SOL    HW1 9592   6.897   3.555  11.730 -0.7942 -0.3270 -2.1270
 2717SOL    HW2 9593   6.996   3.561  11.615  2.7402  0.7396  0.7775
 2718SOL     OW 9594   6.517   4.761   8.127 -0.6932  0.4601 -0.1991
 2718SOL    HW1 9595   6.447   4.706   8.092 -1.1501  1.4339 -0.8828
 2718SOL    HW2 9596   6.510   4.843   8.077  1.1836  0.4429 -0.5853
 2719SOL     OW 9597   7.866   3.757   9.881 -0.2572  0.1955 -0.4258
 2719SOL    HW1 9598   7.853   3.838   9.833  1.7657  0.1148 -1.2130
 2719SOL    HW2 9599   7.777   3.726   9.901 -1.0775  2.4693 -0.2616
 2720SOL     OW 9600   6.763   0.212   3.289 -0.4429 -0.2981 -0.1934
 2720SOL    HW1 9601   6.699   0.252   3.230 -2.4059  0.6238  2.3789
 2720SOL    HW2 9602   6.739   0.119   3.290 -1.5054 -0.0303  0.4208
 2721SOL     OW 9603   0.920   4.465   5.402 -0.0707 -0.2469  0.3184
 2721SOL    HW1 9604   0.940   4.392   5.459  0.6466  1.6050  2.6055
 2721SOL    HW2 9605   0.826   4.457   5.384  0.1801 -2.1960 -0.2697
 2722SOL     OW 9606   6.921   5.495  11.475 -0.3929  0.4374  0.1173
 2722SOL    HW1 9607   6.995   5.554  11.489  1.4089 -1.9056  1.1467
 2722SOL    HW2 9608   6.876   5.492  11.559  0.3190 -0.5979  0.4868
 2723SOL     OW 9609   0.974   5.955   4.711 -0.1595  0.6025 -0.1053
 2723SOL    HW1 9610   0.878   5.954   4.711 -0.1726  0.2489  1.0356
 2723SOL    HW2 9611   0.998   6.001   4.791  0.6114 -0.4775  0.3160
 2724SOL     OW 9612   0.213   0.045   6.146  0.1636 -0.1052  0.7624
 2724SOL    HW1 9613   0.226  -0.048   6.128  0.6769 -0.0074  0.6211
 2724SOL    HW2 9614   0.118   0.058   6.136  0.4137  0.0375 -2.3399
 2725SOL     OW 9615   2.267   2.736   6.997 -0.3931 -0.0694 -0.5611
 2725SOL    HW1 9616   2.353   2.741   6.956  0.8812 -3.4138  1.2904
 2725SOL    HW2 9617   2.281   2.770   7.086 -1.3716  0.6384 -0.6596
 2726SOL     OW 9618   5.334   1.546   4.858  0.1339 -0.2853  0.3856
 2726SOL    HW1 9619   5.300   1.474   4.805  0.3000 -0.4691  0.5263
 2726SOL    HW2 9620   5.335   1.512   4.948  0.8494 -0.3460  0.3607
 2727SOL     OW 9621   1.569   3.239   0.837 -0.0235  0.1520  0.5795
 2727SOL    HW1 9622   1.618   3.168   0.877  0.5846 -0.1634 -0.6767
 2727SOL    HW2 9623   1.636   3.304   0.812 -0.4321  0.5516  0.5058
 2728SOL     OW 9624   7.288   6.644   4.416 -0.2936 -0.1538  0.0800
 2728SOL    HW1 9625   7.216   6.639   4.353 -0.8958 -0.6567  0.7889
 2728SOL    HW2 9626   7.246   6.662   4.500  0.6714  2.9548  0.0361
 2729SOL     OW 9627   2.974   5.678   8.370  0.5511  0.5733 -0.4697
 2729SOL    HW1 9628   3.006   5.644   8.287 -0.0967  1.3974 -1.0771
 2729SOL    HW2 9629   2.893   5.630   8.387  1.2357 -0.3652  0.2517
 2730SOL     OW 9630   0.163   5.447   9.009  0.0315  0.7910 -0.0352
 2730SOL    HW1 9631   0.098   5.500   9.054 -0.0639  0.9555 -0.3678
 2730SOL    HW2 9632   0.238   5.445   9.069  0.1649  1.5813 -0.1694
 2731SOL     OW 9633   5.061   1.241   5.609  0.7451 -0.1078 -0.3995
 2731SOL    HW1 9634   5.121   1.182   5.564  0.9932  0.7489 -1.2341
 2731SOL    HW2 9635   5.108   1.324   5.614 -0.1352  0.4123 -0.5115
 2732SOL     OW 9636   3.665   5.124   0.305  0.3848 -0.1104 -0.0273
 2732SOL    HW1 9637   3.652   5.134   0.399 -0.1341 -0.6374 -0.0405
 2732SOL    HW2 9638   3.754   5.156   0.290  0.6832 -0.5510  0.7333
 2733SOL     OW 9639   6.991   6.934   7.473  0.3825  0.0590 -0.2185
 2733SOL    HW1 9640   6.923   6.890   7.523  0.1685  0.5205 -0.0960
 2733SOL    HW2 9641   7.057   6.959   7.538  0.3433  0.2166 -0.2390
 2734SOL     OW 9642   6.605   5.870   1.672  0.8406 -0.0194  0.2458
 2734SOL    HW1 9643   6.684   5.870   1.618 -0.2583 -0.3490 -1.4168
 2734SOL    HW2 9644   6.587   5.963   1.687  0.6065  0.1204 -0.8196
 2735SOL     OW 9645   1.807   1.665   1.306  0.3665  0.0644 -0.1248
 2735SOL    HW1 9646   1.750   1.732   1.342  1.9019  1.1303  0.4456
 2735SOL    HW2 9647   1.754   1.621   1.239 -1.0895  0.9699  0.3944
 2736SOL     OW 9648   4.145   2.984  10.938  0.0546  0.1395  0.2308
 2736SOL    HW1 9649   4.233   2.989  10.898 -0.6546 -1.3437 -1.6524
 2736SOL    HW2 9650   4.099   3.060  10.903 -0.7656 -1.4854 -2.5161
 2737SOL     OW 9651   5.041   6.597   0.827 -1.0940 -0.2658 -0.1243
 2737SOL    HW1 9652   5.053   6.520   0.883  1.5994  1.3722  1.8027
 2737SOL    HW2 9653   5.110   6.589   0.761  1.8118  2.1665  2.3473
 2738SOL     OW 9654   0.351   3.455   7.771  0.0778  0.4520 -0.3247
 2738SOL    HW1 9655   0.326   3.382   7.713  1.6952 -0.7956  0.4689
 2738SOL    HW2 9656   0.292   3.447   7.846 -1.3701  1.4855 -1.2865
 2739SOL     OW 9657   6.205   5.479   6.818  0.1128  0.0552 -0.4246
 2739SOL    HW1 9658   6.278   5.451   6.873 -0.9615 -3.2651 -0.4606
 2739SOL    HW2 9659   6.243   5.493   6.732  1.2101  1.7582  0.2880
 2740SOL     OW 9660   5.912   0.701   1.912 -0.2586  0.3619 -0.1190
 2740SOL    HW1 9661   5.906   0.739   2.000  3.2172  2.7283 -0.7037
 2740SOL    HW2 9662   5.889   0.773   1.853  0.0235 -0.3903 -1.1849
 2741SOL     OW 9663   7.509   0.256   5.622 -0.1360 -0.2205  0.8326
 2741SOL    HW1 9664   7.471   0.177   5.582 -1.0793 -0.7716  2.7303
 2741SOL    HW2 9665   7.436   0.315   5.634  0.4610  0.7033  0.0511
 2742SOL     OW 9666   0.209   5.868  11.909 -0.2253 -0.2925 -0.0222
 2742SOL    HW1 9667   0.250   5.932  11.968  1.2297 -1.6852  0.5609
 2742SOL    HW2 9668   0.115   5.878  11.926  0.1167 -0.5464  2.5106
 2743SOL     OW 9669   5.942   3.283   3.324 -0.2934 -0.2856 -0.4934
 2743SOL    HW1 9670   5.992   3.347   3.374 -0.3975 -0.7430  0.2131
 2743SOL    HW2 9671   5.862   3.329   3.298 -0.5412 -0.2224  0.3307
 2744SOL     OW 9672   3.826   5.748   7.103 -1.0292 -0.1853  0.3004
 2744SOL    HW1 9673   3.851   5.776   7.191  1.3123  2.2680 -0.9849
 2744SOL    HW2 9674   3.873   5.665   7.090 -2.7566 -1.4711  1.8831
 2745SOL     OW 9675   4.780   0.778   4.717  0.5987 -0.0445 -0.3999
 2745SOL    HW1 9676   4.823   0.724   4.783 -1.5023  0.2294  1.3066
 2745SOL    HW2 9677   4.720   0.719   4.673 -1.2353  0.6443  1.0380
 2746SOL     OW 9678   3.490   2.448  11.781 -0.2980  0.0466  0.0563
 2746SOL    HW1 9679   3.427   2.389  11.739  0.1337 -0.3108 -0.0949
 2746SOL    HW2 9680   3.513   2.404  11.863  1.1657 -0.7721 -0.7299
 2747SOL     OW 9681   4.294   7.230   3.990  0.1890  0.1991 -0.0648
 2747SOL    HW1 9682   4.263   7.170   3.922  1.3685  1.0763 -1.4543
 2747SOL    HW2 9683   4.230   7.301   3.990  0.7846  0.7665 -1.1266
 2748SOL     OW 9684   0.356   4.369  10.479 -0.0316  0.1854 -0.0633
 2748SOL    HW1 9685   0.269   4.385  10.442 -0.2638  0.7940  0.7229
 2748SOL    HW2 9686   0.350   4.282  10.519 -0.9419  1.0647  1.8207
 2749SOL     OW 9687   6.293   4.150   4.372 -0.4160 -0.4488  0.0168
 2749SOL    HW1 9688   6.278   4.230   4.421  0.5093 -0.1837 -0.1170
 2749SOL    HW2 9689   6.300   4.081   4.438  1.2021 -0.0377  0.3114
 2750SOL     OW 9690   6.658   6.671   4.006  0.0534 -0.2219  0.0352
 2750SOL    HW1 9691   6.711   6.594   3.985  1.1378  0.0239  1.6654
 2750SOL    HW2 9692   6.598   6.640   4.075  0.6881  0.4422  0.9013
 2751SOL     OW 9693   4.855   0.710   2.073 -0.1821  0.1890  0.6922
 2751SOL    HW1 9694   4.843   0.707   1.978 -1.3057  0.6370  0.8067
 2751SOL    HW2 9695   4.949   0.696   2.085  0.1163  0.9430 -0.5288
 2752SOL     OW 9696   1.419   4.035   5.932 -0.0159 -0.1623  0.5748
 2752SOL    HW1 9697   1.446   4.117   5.891  1.3367 -0.6445  0.4464
 2752SOL    HW2 9698   1.491   3.975   5.914 -0.9545 -1.3726  0.7054
 2753SOL     OW 9699   1.900   4.932   8.111  0.0968  0.4855 -0.1554
 2753SOL    HW1 9700   1.841   4.870   8.068 -0.5004  1.3878 -0.6516
 2753SOL    HW2 9701   1.870   5.018   8.083 -0.6587  1.1638  2.5157
 2754SOL     OW 9702   0.652   3.952   8.238  0.2155 -0.0889  0.3331
 2754SOL    HW1 9703   0.615   3.866   8.257  0.5622  0.0542  1.7874
 2754SOL    HW2 9704   0.747   3.939   8.246  0.3050  0.2651 -0.1580
 2755SOL     OW 9705   4.747   0.470   3.945  0.5742  0.2731  0.4989
 2755SOL    HW1 9706   4.653   0.476   3.934  0.5192  1.1974  1.2577
 2755SOL    HW2 9707   4.782   0.542   3.892  0.8803 -0.2762 -0.0519
 2756SOL     OW 9708   4.593   5.858   6.041  0.1172 -0.1002  0.1837
 2756SOL    HW1 9709   4.516   5.830   5.993  0.6587 -0.1959 -0.6550
 2756SOL    HW2 9710   4.645   5.908   5.977  1.9181 -2.0930 -0.0232
 2757SOL     OW 9711   7.799   4.148   2.732  0.1823 -0.3445  0.1061
 2757SOL    HW1 9712   7.798   4.151   2.636 -0.3420 -2.6086 -0.0065
 2757SOL    HW2 9713   7.735   4.214   2.759  0.5153  0.4942 -1.0700
 2758SOL     OW 9714   1.598   4.751   5.934 -0.2890  0.4760  0.1447
 2758SOL    HW1 9715   1.659   4.783   6.001  0.0477 -0.5732  0.3526
 2758SOL    HW2 9716   1.565   4.669   5.969 -0.3027  0.0372 -0.8673
 2759SOL     OW 9717   0.258   4.732   7.500  0.0461 -0.3414 -0.0565
 2759SOL    HW1 9718   0.329   4.783   7.462  1.0792 -2.5774 -1.3268
 2759SOL    HW2 9719   0.187   4.795   7.512  1.8028  1.7204  0.1454
 2760SOL     OW 9720   1.342   4.548  10.240 -0.0129  0.5930 -0.3653
 2760SOL    HW1 9721   1.249   4.523  10.241  0.3167 -0.6643  0.0355
 2760SOL    HW2 9722   1.389   4.469  10.267  1.0708  1.6720  1.0762
 2761SOL     OW 9723   0.406   5.429   5.937 -0.2053  0.1331  0.7319
 2761SOL    HW1 9724   0.335   5.472   5.890 -0.4801 -0.9036  0.1864
 2761SOL    HW2 9725   0.414   5.479   6.018 -0.7062  1.0335  0.2419
 2762SOL     OW 9726   1.897   4.070   4.997 -0.4494  0.4295 -0.0101
 2762SOL    HW1 9727   1.819   4.101   5.042  0.0351  1.6765  0.0068
 2762SOL    HW2 9728   1.970   4.095   5.053  0.2191  2.5993 -1.7147
 2763SOL     OW 9729   3.799   6.334  10.268 -0.2218  0.2144  0.0689
 2763SOL    HW1 9730   3.859   6.259  10.276 -1.5279 -0.7020  2.5292
 2763SOL    HW2 9731   3.845   6.406  10.309  0.5489  0.4743 -1.2024
 2764SOL     OW 9732   1.937   4.455   1.643  0.4037  0.1761  0.1313
 2764SOL    HW1 9733   1.874   4.515   1.684  0.0170  0.1789 -0.4534
 2764SOL    HW2 9734   1.910   4.451   1.551  0.6516 -0.6066  0.0849
 2765SOL     OW 9735   7.679   2.592   4.892  0.3146  0.3282 -0.4283
 2765SOL    HW1 9736   7.623   2.612   4.967  0.9641 -0.1729  0.1984
 2765SOL    HW2 9737   7.636   2.517   4.850 -0.5902  1.2251 -1.1532
 2766SOL     OW 9738   2.548   5.288   0.246  0.2900 -0.1653  0.1133
 2766SOL    HW1 9739   2.502   5.224   0.300  0.1222  0.1090  0.3000
 2766SOL    HW2 9740   2.604   5.236   0.189 -0.2736 -0.5037 -0.1366
 2767SOL     OW 9741   3.545   5.172   8.799 -0.2104  0.0454  0.2803
 2767SOL    HW1 9742   3.567   5.079   8.791  1.2712  0.2203  1.6969
 2767SOL    HW2 9743   3.449   5.174   8.802 -0.2809 -1.3706 -0.3971
 2768SOL     OW 9744   3.158   5.120   5.524  0.0464 -0.3740 -0.0191
 2768SOL    HW1 9745   3.148   5.111   5.618  0.3085  0.7002  0.1226
 2768SOL    HW2 9746   3.070   5.104   5.489 -0.0704 -0.6812  0.4030
 2769SOL     OW 9747   6.872   1.210   7.499  0.3021 -0.6750  0.0397
 2769SOL    HW1 9748   6.886   1.295   7.456 -1.7700 -0.3199 -0.0118
 2769SOL    HW2 9749   6.938   1.208   7.568  1.0947  0.4873 -0.6303
 2770SOL     OW 9750   6.519   5.541   2.600 -0.2519 -0.5116  0.4903
 2770SOL    HW1 9751   6.510   5.509   2.690 -1.8479 -1.5713  0.0003
 2770SOL    HW2 9752   6.438   5.514   2.557  0.6238 -0.3336 -1.3687
 2771SOL     OW 9753   3.386   2.418   6.737  0.6399  0.4435  0.0844
 2771SOL    HW1 9754   3.416   2.327   6.743 -0.0153  0.1719 -0.5526
 2771SOL    HW2 9755   3.432   2.453   6.661 -0.0975  0.2383 -0.4667
 2772SOL     OW 9756   5.260   2.412  10.147 -0.3057  0.1947 -0.0922
 2772SOL    HW1 9757   5.332   2.351  10.128  1.0780  1.2905  1.3254
 2772SOL    HW2 9758   5.194   2.359  10.190 -0.0356 -0.7072 -0.7537
 2773SOL     OW 9759   7.556   0.220  11.947 -0.2827 -0.4215  0.5906
 2773SOL    HW1 9760   7.533   0.219  12.040  1.4002 -0.2062  1.0397
 2773SOL    HW2 9761   7.619   0.148  11.937  2.0142  1.5018  0.3406
 2774SOL     OW 9762   4.141   1.701   1.570  0.1876 -0.1270 -0.3038
 2774SOL    HW1 9763   4.068   1.694   1.631 -0.6857 -0.6631 -1.3679
 2774SOL    HW2 9764   4.188   1.780   1.598 -1.7664  1.2205 -0.5881
 2775SOL     OW 9765   3.545   3.498  10.530  0.3342 -0.4304  0.2279
 2775SOL    HW1 9766   3.599   3.577  10.542  1.7243 -1.3624  0.3517
 2775SOL    HW2 9767   3.470   3.512  10.589  1.4682  0.0207  1.6411
 2776SOL     OW 9768   1.560   1.314   0.849 -0.0024  0.8036 -0.4005
 2776SOL    HW1 9769   1.522   1.289   0.933  1.9030  0.7284  0.4947
 2776SOL    HW2 9770   1.532   1.404   0.835 -1.8684  0.2389 -0.6523
 2777SOL     OW 9771   2.480   2.459   6.129  0.5640  0.1707 -0.1074
 2777SOL    HW1 9772   2.473   2.440   6.222 -0.4200  0.8144 -0.0323
 2777SOL    HW2 9773   2.517   2.380   6.090  1.6673  0.1638  0.9207
 2778SOL     OW 9774   5.440   4.108   2.780  0.3399  0.1459 -0.2721
 2778SOL    HW1 9775   5.386   4.169   2.830  1.5589  0.0376  1.2533
 2778SOL    HW2 9776   5.404   4.022   2.802  0.7602  0.1108  0.3143
 2779SOL     OW 9777   5.874   1.930   8.330  0.0261 -0.1316 -0.2643
 2779SOL    HW1 9778   5.785   1.963   8.318  0.8096  1.4781 -2.0928
 2779SOL    HW2 9779   5.876   1.848   8.281  0.0129  0.7605 -1.8289
 2780SOL     OW 9780   4.945   3.829  10.281 -0.2223  0.5492 -0.6763
 2780SOL    HW1 9781   4.969   3.746  10.239 -0.5812  0.5629 -0.9093
 2780SOL    HW2 9782   5.028   3.877  10.288 -0.0478  0.2593 -0.7287
 2781SOL     OW 9783   6.441   5.779   7.991  0.2201  1.2322 -0.8555
 2781SOL    HW1 9784   6.471   5.790   8.081  0.4439  0.6107 -0.8471
 2781SOL    HW2 9785   6.363   5.725   7.997 -0.7815  2.6271 -0.9032
 2782SOL     OW 9786   1.005   2.751   1.044  0.2689  0.1448 -0.2901
 2782SOL    HW1 9787   1.033   2.796   1.124  1.4548 -1.4643  0.2681
 2782SOL    HW2 9788   0.999   2.820   0.978 -1.8810  1.7236  1.3902
 2783SOL     OW 9789   6.814   5.361   6.826 -0.4106  0.5182 -0.2360
 2783SOL    HW1 9790   6.833   5.268   6.836  0.1845  0.6476 -0.1080
 2783SOL    HW2 9791   6.899   5.404   6.831 -0.6454  1.0478 -0.5826
 2784SOL     OW 9792   7.340   0.914  12.153 -0.7806  0.1815  0.0733
 2784SOL    HW1 9793   7.426   0.947  12.128 -0.3978 -3.0440 -4.0407
 2784SOL    HW2 9794   7.354   0.820  12.169 -3.2864 -0.1148  0.9830
 2785SOL     OW 9795   6.478   7.320   7.623  0.7804  0.3179  0.1634
 2785SOL    HW1 9796   6.561   7.327   7.576  0.9279 -0.5894  0.2606
 2785SOL    HW2 9797   6.425   7.262   7.569  0.3102  0.6645  0.2462
 2786SOL     OW 9798   3.425   5.698   5.618 -0.0900 -0.4686 -0.0654
 2786SOL    HW1 9799   3.406   5.662   5.705 -0.9318  1.4861  0.6233
 2786SOL    HW2 9800   3.433   5.621   5.561  1.0618 -1.8271  1.8251
 2787SOL     OW 9801   1.338   0.797   3.762  0.4645  0.3260 -0.7244
 2787SOL    HW1 9802   1.269   0.861   3.773 -0.4035 -0.4292 -1.5921
 2787SOL    HW2 9803   1.372   0.812   3.674 -0.2504 -0.8533 -1.2279
 2788SOL     OW 9804   6.441   6.083  10.716 -0.5935  0.4327 -0.5176
 2788SOL    HW1 9805   6.488   6.128  10.645  1.1564 -0.7608 -0.1751
 2788SOL    HW2 9806   6.478   5.995  10.717 -0.7901  0.3298  1.6832
 2789SOL     OW 9807   6.130   6.563   1.933  0.0196 -0.1709 -0.0467
 2789SOL    HW1 9808   6.179   6.551   1.852  2.8508 -0.8605  1.6372
 2789SOL    HW2 9809   6.055   6.504   1.925  0.1321 -0.1149 -2.1459
 2790SOL     OW 9810   2.494   7.031   5.896  0.1633  0.0260 -0.2987
 2790SOL    HW1 9811   2.577   7.078   5.890 -0.8386  1.9531  0.1426
 2790SOL    HW2 9812   2.433   7.082   5.842 -1.0004 -0.6976  0.2904
 2791SOL     OW 9813   6.765   0.040  11.511 -0.8773 -0.2024  0.2306
 2791SOL    HW1 9814   6.826  -0.026  11.542  2.3329  1.9281 -1.0272
 2791SOL    HW2 9815   6.726   0.002  11.433  1.8916 -0.2787 -1.2436
 2792SOL     OW 9816   6.660   2.512   2.484  0.1890 -0.2230  0.3388
 2792SOL    HW1 9817   6.688   2.597   2.516  2.3170 -0.1015 -1.6115
 2792SOL    HW2 9818   6.701   2.503   2.398 -4.0163 -1.0389 -1.9089
 2793SOL     OW 9819   4.634   7.780   6.674 -0.2700 -0.2628  0.5197
 2793SOL    HW1 9820   4.709   7.726   6.701  0.0037 -0.7635 -1.1289
 2793SOL    HW2 9821   4.649   7.796   6.581 -2.4090 -0.7060  0.0505
 2794SOL     OW 9822   3.525   0.179   3.789 -0.3535  0.0126  0.3538
 2794SOL    HW1 9823   3.560   0.108   3.735 -0.4652  0.6080 -0.5235
 2794SOL    HW2 9824   3.556   0.159   3.877  2.5969  0.7603 -0.4111
 2795SOL     OW 9825   2.016   4.268   2.767  0.4835  0.8704 -0.6977
 2795SOL    HW1 9826   2.046   4.318   2.692  1.7045  2.2738  0.6497
 2795SOL    HW2 9827   2.095   4.221   2.797  0.0088  0.3107 -0.3101
 2796SOL     OW 9828   6.684   6.928   7.336  0.6884 -0.5235  0.2069
 2796SOL    HW1 9829   6.650   6.891   7.418  0.4142 -1.3662 -0.2711
 2796SOL    HW2 9830   6.608   6.966   7.294  0.7024 -0.6768  0.0421
 2797SOL     OW 9831   7.576   6.690   4.068 -0.2763 -0.2300  0.0882
 2797SOL    HW1 9832   7.602   6.720   3.981 -0.0636 -0.1769  0.1679
 2797SOL    HW2 9833   7.657   6.655   4.106 -0.2776  0.1112  0.4135
 2798SOL     OW 9834   0.139   5.463   3.360 -0.3279  0.3260 -0.0951
 2798SOL    HW1 9835   0.163   5.404   3.288 -1.0017 -0.8813  0.6390
 2798SOL    HW2 9836   0.044   5.460   3.363 -0.2829 -0.7382  1.6981
 2799SOL     OW 9837   6.739   4.956  11.215  0.0158 -0.4231 -0.1971
 2799SOL    HW1 9838   6.805   4.904  11.169  0.4369  0.2842 -0.4171
 2799SOL    HW2 9839   6.660   4.903  11.213  0.5488 -1.2311 -0.0469
 2800SOL     OW 9840   1.823   2.296   8.292 -0.4013 -0.2067  0.2000
 2800SOL    HW1 9841   1.777   2.344   8.224  1.9146  0.7643 -0.7800
 2800SOL    HW2 9842   1.868   2.364   8.343  0.8967 -1.1358  0.3499
 2801SOL     OW 9843   4.890   7.534   0.476 -0.2986 -0.0246 -0.1596
 2801SOL    HW1 9844   4.948   7.609   0.464 -0.9861  0.5381 -0.0254
 2801SOL    HW2 9845   4.894   7.487   0.392 -0.8139  0.8486 -0.6898
 2802SOL     OW 9846   0.839   3.787  10.633 -0.3509  0.4674  0.4557
 2802SOL    HW1 9847   0.905   3.752  10.573 -1.9036 -1.0574 -0.4550
 2802SOL    HW2 9848   0.844   3.882  10.622  0.6901  0.3153 -0.6531
 2803SOL     OW 9849   4.916   6.109   3.229  0.1303  0.5094  0.4591
 2803SOL    HW1 9850   4.835   6.139   3.270 -1.7297 -1.5003 -1.4572
 2803SOL    HW2 9851   4.943   6.181   3.172 -0.9471  0.7988  0.2973
 2804SOL     OW 9852   6.641   6.706   9.220  0.3559 -0.2836 -0.3089
 2804SOL    HW1 9853   6.610   6.742   9.137 -0.1914  0.5080  0.2230
 2804SOL    HW2 9854   6.638   6.780   9.281  3.2827 -0.1381 -0.1924
 2805SOL     OW 9855   1.915   6.453   6.118 -0.0570 -0.2257 -0.0618
 2805SOL    HW1 9856   1.891   6.493   6.202  2.5424  0.7791  0.2963
 2805SOL    HW2 9857   1.928   6.527   6.059  0.9677 -0.7253 -0.4928
 2806SOL     OW 9858   6.450   6.634   3.225  0.3694 -0.0427 -0.2365
 2806SOL    HW1 9859   6.413   6.585   3.300  2.4465 -0.5617  0.5062
 2806SOL    HW2 9860   6.386   6.621   3.155 -0.3276 -1.8330  0.6619
 2807SOL     OW 9861   3.577   4.415   0.347  0.0756 -0.2213  0.2386
 2807SOL    HW1 9862   3.604   4.418   0.255 -1.1977 -0.8932 -0.1835
 2807SOL    HW2 9863   3.539   4.501   0.364  1.6600  0.4376  0.5985
 2808SOL     OW 9864   7.920   2.659  11.209  0.4563  0.5584 -0.2039
 2808SOL    HW1 9865   7.873   2.646  11.127 -2.4992 -2.9692  1.7580
 2808SOL    HW2 9866   7.857   2.702  11.267  1.5120  0.4993  1.0359
 2809SOL     OW 9867   1.981   1.546   3.156 -0.4202 -0.7975 -0.8996
 2809SOL    HW1 9868   1.964   1.499   3.074 -0.5340  0.3873 -1.5721
 2809SOL    HW2 9869   1.969   1.638   3.134  3.1713 -0.0715 -0.5436
 2810SOL     OW 9870   1.397   4.929   3.814 -0.0976 -0.9640  0.4910
 2810SOL    HW1 9871   1.418   4.962   3.727  0.8640 -0.4299  0.9017
 2810SOL    HW2 9872   1.481   4.930   3.860 -0.7784 -0.1598  1.7702
 2811SOL     OW 9873   5.389   1.395   3.398  0.0869 -0.4439 -0.3090
 2811SOL    HW1 9874   5.452   1.342   3.446 -0.3105 -0.8453 -0.2169
 2811SOL    HW2 9875   5.320   1.333   3.372 -0.8106  0.1670  0.5257
 2812SOL     OW 9876   6.412   7.493  11.802 -0.2939  0.4687  0.0869
 2812SOL    HW1 9877   6.321   7.521  11.792 -0.6122 -0.8716 -1.0943
 2812SOL    HW2 9878   6.425   7.429  11.732  0.9344 -0.9523  1.5591
 2813SOL     OW 9879   4.221   6.531  12.258 -0.0760  0.0656 -0.0718
 2813SOL    HW1 9880   4.221   6.592  12.332  1.1463  1.1230 -0.9029
 2813SOL    HW2 9881   4.152   6.468  12.279 -0.7152  1.1629  1.2829
 2814SOL     OW 9882   2.121   6.645   1.620  0.1702  0.0250  0.1017
 2814SOL    HW1 9883   2.072   6.656   1.538 -2.2838 -0.7395  1.3719
 2814SOL    HW2 9884   2.166   6.728   1.632 -2.4685  1.5958 -0.1570
 2815SOL     OW 9885   6.578   6.958  10.467 -0.4621 -0.1071 -0.1508
 2815SOL    HW1 9886   6.561   7.050  10.487  2.1249  0.3815  0.1546
 2815SOL    HW2 9887   6.589   6.916  10.553 -0.1762 -0.3726 -0.3137
 2816SOL     OW 9888   5.988   7.019   0.462 -0.2393 -0.2965  0.2366
 2816SOL    HW1 9889   5.922   7.003   0.529 -0.4256  0.7271  0.3060
 2816SOL    HW2 9890   6.034   7.098   0.491 -0.2223  0.0735 -0.7466
 2817SOL     OW 9891   4.368   5.428   6.466 -0.0765  0.8772  0.1067
 2817SOL    HW1 9892   4.354   5.354   6.525 -0.5819  0.2185 -0.7964
 2817SOL    HW2 9893   4.395   5.500   6.522  0.2720  0.0424  1.0308
 2818SOL     OW 9894   6.625   5.238   1.195  0.2125 -0.1926  0.6223
 2818SOL    HW1 9895   6.539   5.208   1.224 -0.0006 -0.0272  0.1702
 2818SOL    HW2 9896   6.607   5.309   1.133  0.6426 -0.7401 -0.1571
 2819SOL     OW 9897   7.061   7.466   4.998 -0.4407  0.5639 -0.3324
 2819SOL    HW1 9898   7.026   7.386   5.038  2.5685 -0.7189 -0.0341
 2819SOL    HW2 9899   7.121   7.502   5.064 -0.3337  2.0644 -1.1973
 2820SOL     OW 9900   5.942   0.999   2.506 -0.0173  0.5427 -0.4732
 2820SOL    HW1 9901   5.940   1.007   2.601  0.9489 -0.6901 -0.3334
 2820SOL    HW2 9902   5.887   1.071   2.475  1.6561  2.5377  0.9244
 2821SOL     OW 9903   7.497   7.633   2.172 -0.5241  0.0333 -0.2951
 2821SOL    HW1 9904   7.483   7.607   2.081  0.7579  0.6370 -0.7032
 2821SOL    HW2 9905   7.436   7.580   2.223 -0.9780 -0.6043 -1.4738
 2822SOL     OW 9906   4.998   6.798   6.274  0.4785  1.0014  0.2895
 2822SOL    HW1 9907   5.055   6.754   6.211 -0.5367 -0.8259  0.5696
 2822SOL    HW2 9908   4.915   6.809   6.227  0.2222  1.1544  0.7707
 2823SOL     OW 9909   3.643   5.529   6.037  0.6121  0.7082 -0.4634
 2823SOL    HW1 9910   3.707   5.464   6.009 -0.4765 -0.0813 -1.2215
 2823SOL    HW2 9911   3.692   5.611   6.042  1.7765  0.0377 -0.5110
 2824SOL     OW 9912   6.196   5.828   2.712 -0.0142  0.0870  0.0363
 2824SOL    HW1 9913   6.190   5.917   2.679  1.2446 -0.1574 -0.9360
 2824SOL    HW2 9914   6.197   5.773   2.633  0.8273 -0.6685  0.5543
 2825SOL     OW 9915   3.071   7.023   1.688  0.3485  0.3209 -0.3476
 2825SOL    HW1 9916   3.046   7.103   1.642 -0.0020  0.9281  0.8808
 2825SOL    HW2 9917   2.990   6.971   1.690 -0.3752  1.4190  1.8356
 2826SOL     OW 9918   1.444   0.466   3.284  0.7286 -0.0537 -0.6735
 2826SOL    HW1 9919   1.459   0.480   3.377  1.1385  0.9817 -0.8836
 2826SOL    HW2 9920   1.430   0.372   3.276 -0.7158  0.0053  0.6306
 2827SOL     OW 9921   3.339   2.716   0.959  0.1289 -0.0471  0.0841
 2827SOL    HW1 9922   3.309   2.626   0.971 -0.2295  0.1005  0.2945
 2827SOL    HW2 9923   3.422   2.707   0.911 -0.5545 -0.4237 -1.0821
 2828SOL     OW 9924   1.475   1.456   5.040 -0.3910  0.1380 -0.2132
 2828SOL    HW1 9925   1.559   1.503   5.047 -1.3789  2.1436 -1.0017
 2828SOL    HW2 9926   1.440   1.482   4.955 -0.1967 -3.6017 -1.6438
 2829SOL     OW 9927   6.640   2.832  10.511  0.7321 -0.3261 -0.5633
 2829SOL    HW1 9928   6.565   2.774  10.522  1.8205 -1.9955 -1.4863
 2829SOL    HW2 9929   6.712   2.774  10.487  1.9172  1.4104 -1.4289
 2830SOL     OW 9930   3.358   3.180   8.717  0.9553 -0.1529  0.0987
 2830SOL    HW1 9931   3.365   3.236   8.640 -0.1236 -0.2243 -0.0613
 2830SOL    HW2 9932   3.380   3.092   8.686  0.4127 -0.2002 -0.1593
 2831SOL     OW 9933   6.331   5.760   1.038 -0.5135  0.1733 -0.0572
 2831SOL    HW1 9934   6.285   5.682   1.070  2.6062 -2.4103 -1.3653
 2831SOL    HW2 9935   6.375   5.795   1.116  0.6804 -1.3843  0.0169
 2832SOL     OW 9936   4.610   5.484   4.167 -0.0156  0.1165 -0.1905
 2832SOL    HW1 9937   4.596   5.579   4.168 -0.8586  0.0050  0.9976
 2832SOL    HW2 9938   4.612   5.459   4.260 -1.8789 -1.2878 -0.4449
 2833SOL     OW 9939   6.524   5.830  10.215  0.1771 -0.0343 -0.4699
 2833SOL    HW1 9940   6.552   5.915  10.248 -0.1605 -0.0961 -0.0038
 2833SOL    HW2 9941   6.586   5.809  10.145 -0.2855  1.0161 -1.2183
 2834SOL     OW 9942   0.324   4.853   5.422 -0.0680  0.5213 -0.7136
 2834SOL    HW1 9943   0.408   4.892   5.447  0.1116  0.0467 -0.5728
 2834SOL    HW2 9944   0.298   4.901   5.344 -0.7721  2.2337  0.5076
 2835SOL     OW 9945   3.138   6.601   6.471  0.0629  0.1188 -0.5874
 2835SOL    HW1 9946   3.149   6.584   6.377 -0.0157 -2.2733 -0.2302
 2835SOL    HW2 9947   3.089   6.683   6.475 -0.3756  0.0094 -2.6696
 2836SOL     OW 9948   2.509   6.717   3.578 -0.6554  0.1877  0.2852
 2836SOL    HW1 9949   2.557   6.636   3.596 -0.8522 -0.1058 -0.4958
 2836SOL    HW2 9950   2.450   6.727   3.653  0.2823  0.3110  1.0385
 2837SOL     OW 9951   1.529   6.320   9.260  0.0011 -0.5159 -0.4398
 2837SOL    HW1 9952   1.580   6.239   9.267  1.1096  0.2608  1.0874
 2837SOL    HW2 9953   1.572   6.371   9.191  0.9834 -0.1015  0.4623
 2838SOL     OW 9954   7.104   2.347   4.345  0.0156  0.0505 -0.3900
 2838SOL    HW1 9955   7.098   2.252   4.339 -0.9691  0.0890 -0.2210
 2838SOL    HW2 9956   7.153   2.364   4.426  0.6574 -0.3091 -0.6958
 2839SOL     OW 9957   2.720   2.179  10.162  0.3323 -0.4602 -0.0978
 2839SOL    HW1 9958   2.660   2.178  10.088 -0.5179 -0.3136  0.5646
 2839SOL    HW2 9959   2.755   2.090  10.166 -0.6401 -0.8463  0.1209
 2840SOL     OW 9960   3.442   7.235  10.935 -0.2918 -0.2356  0.2945
 2840SOL    HW1 9961   3.369   7.254  10.876  0.6119  0.8427 -0.5370
 2840SOL    HW2 9962   3.516   7.219  10.876  0.3180 -0.5673  1.1328
 2841SOL     OW 9963   3.704   6.104   1.949 -0.1240 -0.1486  0.6588
 2841SOL    HW1 9964   3.736   6.021   1.913  0.1683  0.0252  0.5189
 2841SOL    HW2 9965   3.736   6.170   1.888 -1.9137 -0.0787 -0.2845
 2842SOL     OW 9966   0.401   4.242   8.958 -0.0143  0.3115  0.1792
 2842SOL    HW1 9967   0.398   4.148   8.943  2.6917  0.2184 -0.2804
 2842SOL    HW2 9968   0.387   4.252   9.052  0.8578 -0.6753  0.4331
 2843SOL     OW 9969   0.540   1.430   0.981 -0.7541 -0.8270  0.2789
 2843SOL    HW1 9970   0.577   1.377   0.910 -0.5913 -1.8293  1.0944
 2843SOL    HW2 9971   0.450   1.400   0.988 -2.0283  1.9593 -2.0431
 2844SOL     OW 9972   5.980   0.036  11.145  0.4932  0.0136  0.0518
 2844SOL    HW1 9973   5.979  -0.008  11.060  0.3283  0.7761 -0.3421
 2844SOL    HW2 9974   5.893   0.019  11.181  0.0872  0.8255 -0.5216
 2845SOL     OW 9975   4.613   5.948  10.997  0.0347 -0.0711 -0.8842
 2845SOL    HW1 9976   4.568   5.943  10.913 -0.3819 -0.2372 -0.6539
 2845SOL    HW2 9977   4.626   6.042  11.011  0.0889 -0.0428 -1.1294
 2846SOL     OW 9978   1.864   4.044  11.676  0.2421 -0.4740  0.0569
 2846SOL    HW1 9979   1.911   4.030  11.594  0.8890 -0.1136  0.3634
 2846SOL    HW2 9980   1.779   4.079  11.649  0.6686  0.2008 -0.4362
 2847SOL     OW 9981   4.838   5.949   7.418 -0.1509 -0.4261  0.2447
 2847SOL    HW1 9982   4.891   6.021   7.452  0.3588 -0.2988 -0.7474
 2847SOL    HW2 9983   4.845   5.881   7.484 -0.8885  0.5330  1.3376
 2848SOL     OW 9984   4.102   3.685   4.654 -0.6113 -0.5485 -0.0407
 2848SOL    HW1 9985   4.027   3.702   4.596 -0.9700 -0.6308  0.3916
 2848SOL    HW2 9986   4.159   3.628   4.603 -1.3650 -1.3775  0.0091
 2849SOL     OW 9987   1.061   0.420   4.274  0.8229 -0.2887 -0.4487
 2849SOL    HW1 9988   1.070   0.380   4.187 -0.3180  0.4248 -0.9205
 2849SOL    HW2 9989   0.997   0.365   4.319  0.9339 -0.2876 -0.2906
 2850SOL     OW 9990   3.192   3.906   1.720 -0.2597  0.4539 -0.5888
 2850SOL    HW1 9991   3.284   3.923   1.701 -0.4126  0.1159 -1.7251
 2850SOL    HW2 9992   3.156   3.992   1.743  0.3764  0.5492  0.1071
 2851SOL     OW 9993   0.720   5.666   2.724  0.7351  0.5295 -0.6319
 2851SOL    HW1 9994   0.712   5.640   2.816  1.1360 -1.7512 -1.1643
 2851SOL    HW2 9995   0.630   5.677   2.694  0.2039 -3.5828 -1.1224
 2852SOL     OW 9996   6.105   5.837   4.612  0.0536 -0.3640 -0.1250
 2852SOL    HW1 9997   6.137   5.927   4.600  0.5718 -0.3957  0.9541
 2852SOL    HW2 9998   6.156   5.786   4.549  3.0430 -0.5892  2.2249
 2853SOL     OW 9999   6.859   3.331  11.771  0.2424 -0.0652  0.3954
 2853SOL    HW110000   6.942   3.303  11.732 -0.3734 -0.5881 -0.5953
 2853SOL    HW210001   6.818   3.249  11.799  0.0281  0.1839  0.8166
 2854SOL     OW10002   4.639   1.359  11.867  0.0583  0.0681 -0.0787
 2854SOL    HW110003   4.604   1.307  11.795  0.5109 -1.7470  0.9685
 2854SOL    HW210004   4.617   1.310  11.946  0.9603  1.1972  0.9132
 2855SOL     OW10005   7.498   6.272   4.508 -0.0746 -0.0256  0.2516
 2855SOL    HW110006   7.452   6.328   4.445 -0.3576 -1.0340 -0.4691
 2855SOL    HW210007   7.430   6.243   4.569 -0.0554 -0.1210  0.2275
 2856SOL     OW10008   7.435   3.276  11.767  0.1363 -0.3609 -0.6555
 2856SOL    HW110009   7.435   3.343  11.699  0.0478  0.1803 -0.1317
 2856SOL    HW210010   7.402   3.197  11.724 -2.5994  0.6560 -0.5928
 2857SOL     OW10011   6.058   0.084   7.525  0.4720  0.0464  0.0468
 2857SOL    HW110012   6.017  -0.002   7.514  0.6476 -0.0674  0.2825
 2857SOL    HW210013   6.131   0.085   7.464  2.6526 -1.3259  2.4148
 2858SOL     OW10014   4.402   4.483  10.626 -0.0984  0.1251 -0.7064
 2858SOL    HW110015   4.448   4.428  10.563  1.4790 -0.8039  1.1570
 2858SOL    HW210016   4.325   4.431  10.651  0.1157 -0.1925 -0.7064
 2859SOL     OW10017   3.947   5.981  10.526  0.8765  0.0191 -0.3238
 2859SOL    HW110018   4.019   6.040  10.505  0.6053  0.4024 -0.2071
 2859SOL    HW210019   3.956   5.908  10.465  1.1704  0.2249 -0.5289
 2860SOL     OW10020   6.589   1.787   1.173  0.6309  0.0830  0.3690
 2860SOL    HW110021   6.519   1.745   1.124 -0.9032  1.6381  1.1340
 2860SOL    HW210022   6.545   1.845   1.235  2.5923  1.4997  0.5667
 2861SOL     OW10023   3.174   3.237  11.156  0.4419  0.2669 -0.4411
 2861SOL    HW110024   3.270   3.238  11.161  0.4415 -0.4936 -0.2192
 2861SOL    HW210025   3.145   3.214  11.244  0.0545  0.4792 -0.5115
 2862SOL     OW10026   6.121   0.629  11.053 -0.3880 -0.4276 -0.1858
 2862SOL    HW110027   6.062   0.702  11.072  0.2231  0.2448 -0.8203
 2862SOL    HW210028   6.101   0.603  10.963 -0.0053 -0.4668 -0.2642
 2863SOL     OW10029   4.574   7.250   5.629  0.0058 -0.3658 -0.4340
 2863SOL    HW110030   4.538   7.248   5.540  1.9497 -0.3766 -1.2608
 2863SOL    HW210031   4.584   7.343   5.648  0.3858 -0.3730 -0.5828
 2864SOL     OW10032   5.151   2.004   2.351 -0.1726  0.8630  0.1260
 2864SOL    HW110033   5.191   2.000   2.438  1.2587 -0.6215 -0.5541
 2864SOL    HW210034   5.118   2.094   2.345 -0.4019  0.9882  2.2132
 2865SOL     OW10035   0.793   6.346   8.155 -0.3710 -0.3189 -0.3431
 2865SOL    HW110036   0.754   6.293   8.086  1.9606 -1.7057 -0.7068
 2865SOL    HW210037   0.779   6.436   8.127 -1.6942 -0.7953 -1.2985
 2866SOL     OW10038   5.981   1.789   6.288 -0.4428  0.2758  0.1117
 2866SOL    HW110039   5.996   1.851   6.217  2.3556 -1.0131 -0.5288
 2866SOL    HW210040   6.047   1.810   6.353 -1.4520 -0.0961  1.2933
 2867SOL     OW10041   4.475   2.270   2.424  0.2752  0.3033  0.0610
 2867SOL    HW110042   4.441   2.359   2.415 -1.8670 -0.4582  0.0207
 2867SOL    HW210043   4.416   2.228   2.487  1.6528 -0.9031  0.6019
 2868SOL     OW10044   1.486   5.693  11.671  0.1640  0.1991 -0.2169
 2868SOL    HW110045   1.569   5.709  11.714 -0.1770 -1.6868  1.2926
 2868SOL    HW210046   1.425   5.755  11.712  0.4794  0.4637 -0.1487
 2869SOL     OW10047   7.041   2.200  10.768 -0.0104  0.1574 -0.1072
 2869SOL    HW110048   7.048   2.257  10.692  0.2415 -1.5213 -1.4146
 2869SOL    HW210049   7.128   2.163  10.778 -0.4375 -0.8636 -0.0257
 2870SOL     OW10050   3.241   1.926   6.512 -0.1388  0.0543  0.4461
 2870SOL    HW110051   3.260   1.910   6.605 -1.2149 -0.7572  0.5611
 2870SOL    HW210052   3.297   1.864   6.465 -0.8441 -0.7677  0.6606
 2871SOL     OW10053   1.683   2.499   5.236  0.6400  0.4905 -0.0398
 2871SOL    HW110054   1.649   2.585   5.261  0.1339  0.8650 -1.8753
 2871SOL    HW210055   1.721   2.512   5.149 -1.0175 -1.4699 -1.1461
 2872SOL     OW10056   7.173   4.431   0.007  0.3424  0.0596 -0.5166
 2872SOL    HW110057   7.147   4.483  -0.068  1.1738 -0.1645 -0.9679
 2872SOL    HW210058   7.268   4.426   0.002  0.5811  1.3971  1.4465
 2873SOL     OW10059   2.460   1.920  10.134  0.0897 -0.1774  0.2867
 2873SOL    HW110060   2.437   1.987  10.198 -1.2280  0.0577 -0.4008
 2873SOL    HW210061   2.556   1.922  10.130  0.0847  1.6377  0.3239
 2874SOL     OW10062   7.911   7.219   5.485  0.0647  0.5441 -0.2883
 2874SOL    HW110063   7.861   7.226   5.566  0.1982  1.7289 -0.3011
 2874SOL    HW210064   7.928   7.125   5.476 -0.9513  0.2725  0.4348
 2875SOL     OW10065   5.064   3.321   4.339 -0.3486 -0.7317  0.3580
 2875SOL    HW110066   5.054   3.379   4.263  0.6167 -1.4849 -0.3664
 2875SOL    HW210067   5.156   3.295   4.337  0.1766  0.6167  2.8280
 2876SOL     OW10068   2.671   4.942   5.701  0.7893  0.3718 -0.2531
 2876SOL    HW110069   2.760   4.909   5.715  1.2553  1.3261 -0.9031
 2876SOL    HW210070   2.659   4.939   5.606  0.4170  1.0070 -0.2269
 2877SOL     OW10071   3.951   4.484   3.265 -0.0844 -0.3549 -0.2999
 2877SOL    HW110072   3.907   4.429   3.200  0.2467  1.4196 -2.1281
 2877SOL    HW210073   3.905   4.568   3.261 -1.6275 -0.8083  3.5663
 2878SOL     OW10074   4.461   5.952  10.779  0.4739  0.2294 -0.2124
 2878SOL    HW110075   4.378   5.986  10.814  1.7035  1.6444  1.4916
 2878SOL    HW210076   4.437   5.870  10.737 -1.7320  0.3768  0.6061
 2879SOL     OW10077   1.371   1.525   4.458 -0.0538 -0.4773  0.0979
 2879SOL    HW110078   1.428   1.490   4.527 -1.2617  0.2439  1.4868
 2879SOL    HW210079   1.432   1.563   4.394  1.1133 -1.8309  0.3554
 2880SOL     OW10080   5.178   4.986   3.324  0.3502  0.3505 -0.8285
 2880SOL    HW110081   5.271   5.008   3.324  0.3294  0.4369 -0.7943
 2880SOL    HW210082   5.147   5.013   3.238  0.2152  0.9156 -0.6081
 2881SOL     OW10083   3.931   3.052   9.128 -0.1568 -0.0008 -0.4517
 2881SOL    HW110084   4.014   3.058   9.081  0.4647 -2.1974  0.2347
 2881SOL    HW210085   3.908   2.959   9.124 -1.4446  0.1832  1.2983
 2882SOL     OW10086   3.571   0.293   2.953  0.2874 -0.3179  0.2457
 2882SOL    HW110087   3.526   0.210   2.938 -2.0648  0.1290  3.4847
 2882SOL    HW210088   3.576   0.300   3.049 -1.5390  4.0897  0.2504
 2883SOL     OW10089   5.627   2.590   5.992  0.5003  0.0452  0.1583
 2883SOL    HW110090   5.622   2.660   6.057 -2.5719  0.9163 -0.8063
 2883SOL    HW210091   5.685   2.624   5.924  1.3097  0.4035  1.0081
 2884SOL     OW10092   6.962   1.700   8.809 -0.0506 -0.3866  0.4391
 2884SOL    HW110093   6.880   1.749   8.818  0.7451  0.9056  0.8697
 2884SOL    HW210094   6.975   1.692   8.715 -0.0825  0.4174  0.3659
 2885SOL     OW10095   7.160   3.910   8.290 -0.9904 -0.7843 -0.3970
 2885SOL    HW110096   7.179   3.963   8.212 -1.0191 -0.0475  0.0810
 2885SOL    HW210097   7.071   3.936   8.315 -1.1381 -1.3211 -0.3519
 2886SOL     OW10098   1.952   5.843   5.223 -0.7909  0.2756 -0.5717
 2886SOL    HW110099   2.040   5.835   5.259 -1.1091 -0.7756  0.0018
 2886SOL    HW210100   1.907   5.905   5.281 -0.6159  0.3335 -0.4996
 2887SOL     OW10101   4.416   7.646   0.260  0.4608 -0.2331  0.3201
 2887SOL    HW110102   4.366   7.573   0.222 -0.5487  0.9166 -0.6511
 2887SOL    HW210103   4.394   7.644   0.353  0.3660 -1.1092  0.2845
 2888SOL     OW10104   6.248   3.672   4.121  0.3802  0.2510  0.1961
 2888SOL    HW110105   6.279   3.755   4.158 -0.7713  0.8503 -0.1260
 2888SOL    HW210106   6.275   3.675   4.029  1.0637 -0.1139  0.3808
 2889SOL     OW10107   0.544   7.130  10.711 -0.0127 -0.2141 -0.0050
 2889SOL    HW110108   0.536   7.071  10.636  0.6630  0.2124 -0.4273
 2889SOL    HW210109   0.582   7.210  10.674  0.1637  0.0649  0.7642
 2890SOL     OW10110   7.685   0.884   0.409 -0.4676 -0.3906  0.0257
 2890SOL    HW110111   7.717   0.893   0.499  0.1336 -0.5834 -0.1689
 2890SOL    HW210112   7.761   0.858   0.358 -0.3031  1.7268 -0.9246
 2891SOL     OW10113   1.793   7.142   7.867  0.0163 -0.1043 -0.1486
 2891SOL    HW110114   1.858   7.175   7.804  1.3040  1.4261  1.8844
 2891SOL    HW210115   1.845   7.093   7.931 -1.3998 -2.6902 -0.8233
 2892SOL     OW10116   3.157   1.444   2.438  0.3768  0.2116 -0.1107
 2892SOL    HW110117   3.143   1.529   2.396 -0.9916  0.0145 -0.1030
 2892SOL    HW210118   3.248   1.446   2.467  0.1515  1.9732  0.5768
 2893SOL     OW10119   4.708   7.846   3.433  0.3335 -0.0288  0.2838
 2893SOL    HW110120   4.632   7.825   3.488  1.4303 -0.3231  1.7450
 2893SOL    HW210121   4.715   7.942   3.438 -0.1565  0.0383 -0.1800
 2894SOL     OW10122   3.782   7.857   9.043  0.1831 -0.3541 -0.0483
 2894SOL    HW110123   3.862   7.809   9.063  1.6294  2.6718  2.2361
 2894SOL    HW210124   3.789   7.878   8.950  0.9897 -1.8543 -0.3544
 2895SOL     OW10125   4.517   0.535   8.457  0.0706  0.1201 -0.1035
 2895SOL    HW110126   4.580   0.479   8.412 -0.1998 -2.0571  1.9869
 2895SOL    HW210127   4.571   0.590   8.514  0.2123 -1.0598  0.9580
 2896SOL     OW10128   0.592   4.331   5.844  0.0430  0.1650 -0.1986
 2896SOL    HW110129   0.599   4.384   5.923 -1.6765  0.2819 -0.0940
 2896SOL    HW210130   0.511   4.281   5.856  1.1087 -1.7942 -0.7096
 2897SOL     OW10131   4.156   1.135   4.164  0.3803  0.0091  0.1136
 2897SOL    HW110132   4.193   1.194   4.229 -0.0439 -0.6095  0.9351
 2897SOL    HW210133   4.191   1.049   4.187 -0.2306 -0.3098 -0.1181
 2898SOL     OW10134   6.186   4.890   8.868  0.1593 -0.0744 -0.0373
 2898SOL    HW110135   6.177   4.956   8.938 -0.8380 -1.8707  1.6267
 2898SOL    HW210136   6.101   4.847   8.864  0.8738 -1.5069 -0.8220
 2899SOL     OW10137   1.368   4.836   5.779  1.1211 -0.2074  0.1424
 2899SOL    HW110138   1.349   4.752   5.739  0.1969 -0.1867  0.5117
 2899SOL    HW210139   1.452   4.823   5.824 -0.2875 -1.8169  2.5381
 2900SOL     OW10140   4.932   1.648   3.125 -0.2074  0.6531  0.3404
 2900SOL    HW110141   4.853   1.701   3.136 -0.8876 -0.5717  1.7186
 2900SOL    HW210142   4.899   1.562   3.097  0.6891  0.3148  0.2955
 2901SOL     OW10143   2.018   5.018   5.602  0.2397  0.5214 -0.4151
 2901SOL    HW110144   1.953   5.033   5.533 -0.4240  0.8664  0.2696
 2901SOL    HW210145   2.088   5.079   5.583 -0.0999  0.8615 -0.5881
 2902SOL     OW10146   0.084   6.159   9.355 -0.0990 -0.6640 -0.2961
 2902SOL    HW110147   0.173   6.165   9.320 -0.2871  1.3110 -0.5451
 2902SOL    HW210148   0.030   6.134   9.280 -0.4763  3.3915 -1.6203
 2903SOL     OW10149   5.691   1.288   8.770  0.3445 -0.1247 -0.0473
 2903SOL    HW110150   5.651   1.368   8.805  1.1070  0.7033 -0.9991
 2903SOL    HW210151   5.782   1.292   8.799  1.0898  0.7750 -2.3633
 2904SOL     OW10152   2.611   3.454  10.667 -0.0033 -0.0373  0.1825
 2904SOL    HW110153   2.606   3.359  10.659  1.5181 -0.0631 -1.1390
 2904SOL    HW210154   2.654   3.469  10.752 -1.1621 -0.4619  0.8668
 2905SOL     OW10155   7.375   6.776   3.284  0.2226 -0.5448  0.0435
 2905SOL    HW110156   7.391   6.855   3.232 -0.8527  0.6014  1.3793
 2905SOL    HW210157   7.459   6.758   3.326  0.4702 -0.0993 -0.2517
 2906SOL     OW10158   1.098   4.854  11.282  0.2739  0.2589  0.3413
 2906SOL    HW110159   1.098   4.840  11.187  0.0603 -3.6245  0.7613
 2906SOL    HW210160   1.052   4.778  11.317  1.7275  0.7516  3.6745
 2907SOL     OW10161   4.429   5.497  12.174  0.4925 -0.7756  0.6357
 2907SOL    HW110162   4.514   5.500  12.218  0.5359  0.5717  0.4917
 2907SOL    HW210163   4.439   5.552  12.097 -0.2576 -1.3191  0.1291
 2908SOL     OW10164   4.170   0.524   6.468  0.0930 -0.1568 -1.1014
 2908SOL    HW110165   4.155   0.612   6.501  0.2756 -0.2330 -0.8126
 2908SOL    HW210166   4.107   0.514   6.397 -1.1209 -0.4155 -0.0302
 2909SOL     OW10167   6.146   2.514   4.132 -0.4785 -0.1577 -0.2000
 2909SOL    HW110168   6.110   2.589   4.177  0.4171  0.3642 -0.3303
 2909SOL    HW210169   6.096   2.509   4.050  1.1182  1.9136 -1.4273
 2910SOL     OW10170   1.391   0.584  10.301 -0.1961 -0.0477  0.2606
 2910SOL    HW110171   1.355   0.624  10.380 -0.6751  0.7029 -0.3230
 2910SOL    HW210172   1.405   0.657  10.241 -0.9914 -0.7228 -0.7902
 2911SOL     OW10173   0.021   3.043  12.189 -0.2894 -0.5875  0.5576
 2911SOL    HW110174  -0.029   3.120  12.215 -1.4352 -1.5768  1.4000
 2911SOL    HW210175   0.009   2.981  12.261  0.8238 -1.4702  0.0245
 2912SOL     OW10176   4.838   3.155   4.361 -0.4397 -0.1671 -0.1255
 2912SOL    HW110177   4.916   3.201   4.330 -0.1280  1.2313  2.5320
 2912SOL    HW210178   4.779   3.224   4.390 -0.6350 -1.3335  2.4643
 2913SOL     OW10179   0.160   2.838  10.455  0.1877 -0.1628  0.3213
 2913SOL    HW110180   0.142   2.851  10.362  1.0550  2.3025  0.4341
 2913SOL    HW210181   0.096   2.894  10.500  0.5486 -0.4072  1.1515
 2914SOL     OW10182   1.865   1.502   2.612 -0.1048 -0.6482 -0.1123
 2914SOL    HW110183   1.874   1.572   2.546 -1.0205  0.2998  0.7280
 2914SOL    HW210184   1.955   1.478   2.632  0.2515  0.4633 -0.2630
 2915SOL     OW10185   6.044   2.968   5.182  0.7700  0.1393 -0.3663
 2915SOL    HW110186   5.963   3.018   5.191  1.2892  0.8543  0.4324
 2915SOL    HW210187   6.074   2.952   5.271  0.4445 -1.9421 -0.5692
 2916SOL     OW10188   2.497   1.418   7.986 -0.3277  0.3443 -0.0351
 2916SOL    HW110189   2.478   1.510   8.007  0.2734  0.8323 -1.4739
 2916SOL    HW210190   2.543   1.385   8.062  0.1960  1.4914  0.1722
 2917SOL     OW10191   6.352   0.756   5.340  0.0191  0.2713  0.4234
 2917SOL    HW110192   6.390   0.668   5.341  0.5616  0.4923  0.2084
 2917SOL    HW210193   6.267   0.747   5.382  0.4589 -0.1820  1.2417
 2918SOL     OW10194   7.226   1.272  11.729 -0.1803  0.2148 -0.0002
 2918SOL    HW110195   7.216   1.207  11.659  0.9125  1.3506 -1.2749
 2918SOL    HW210196   7.217   1.222  11.810 -1.8911 -1.0989 -0.9124
 2919SOL     OW10197   3.265   4.996   2.008  0.1671  0.0855  0.5538
 2919SOL    HW110198   3.258   5.064   2.074 -1.8771  0.5830 -0.0788
 2919SOL    HW210199   3.183   4.947   2.016  0.7213 -1.0430 -0.3343
 2920SOL     OW10200   3.702   3.511   8.002 -0.8605  0.3264  0.6878
 2920SOL    HW110201   3.636   3.540   7.939 -0.3826  0.8581  0.4217
 2920SOL    HW210202   3.687   3.417   8.010 -0.4362  0.0996 -0.8210
 2921SOL     OW10203   2.163   3.231   1.385  0.4210 -0.2547 -0.6944
 2921SOL    HW110204   2.125   3.313   1.356 -1.2372 -1.2578 -1.4964
 2921SOL    HW210205   2.257   3.240   1.367  0.4509  1.8352  0.2641
 2922SOL     OW10206   4.117   5.378   2.088  0.3416  0.1867  0.3433
 2922SOL    HW110207   4.075   5.301   2.048  0.1895  0.5026 -0.1203
 2922SOL    HW210208   4.202   5.384   2.044  0.4387  0.1616  0.5284
 2923SOL     OW10209   0.115   6.714   0.915 -0.1669 -0.3039 -0.4606
 2923SOL    HW110210   0.044   6.743   0.973 -0.1547 -0.6516 -0.2682
 2923SOL    HW210211   0.082   6.635   0.873  0.2987 -0.7779  0.0373
 2924SOL     OW10212   5.027   4.937   9.845 -0.0466 -0.2431  0.1154
 2924SOL    HW110213   5.070   4.855   9.870  1.3558  0.5097  0.2892
 2924SOL    HW210214   5.068   5.003   9.901 -0.7640  0.6637 -0.4014
 2925SOL     OW10215   2.657   4.133   4.576 -0.1202  0.2007 -0.1781
 2925SOL    HW110216   2.715   4.071   4.532  0.8590  0.1514  1.1227
 2925SOL    HW210217   2.715   4.201   4.609 -0.8070  0.2098  1.0687
 2926SOL     OW10218   2.372   0.324   1.259 -0.6381  0.0182 -0.4656
 2926SOL    HW110219   2.394   0.248   1.313 -0.8270  0.2396 -0.0800
 2926SOL    HW210220   2.324   0.287   1.185 -2.1526 -0.0814  0.5281
 2927SOL     OW10221   6.953   0.824   4.487 -0.1351  0.1918  0.1893
 2927SOL    HW110222   6.885   0.889   4.502  0.3885  0.1559  3.4826
 2927SOL    HW210223   6.909   0.740   4.500 -0.0156  0.0378 -0.3642
 2928SOL     OW10224   4.597   2.134   2.757  0.3142 -0.0671 -0.2073
 2928SOL    HW110225   4.691   2.148   2.749  0.5807 -1.4595  0.3026
 2928SOL    HW210226   4.581   2.123   2.850 -0.3909  0.3464 -0.2670
 2929SOL     OW10227   7.482   7.115   3.860  0.4884 -0.0800 -0.1178
 2929SOL    HW110228   7.421   7.188   3.858 -1.1768 -1.4049 -1.3097
 2929SOL    HW210229   7.550   7.139   3.797 -0.5648  0.0545 -1.2460
 2930SOL     OW10230   3.208   2.835   0.567 -0.3338  0.3655 -0.0420
 2930SOL    HW110231   3.202   2.916   0.619 -0.9974 -0.4434  1.1980
 2930SOL    HW210232   3.140   2.845   0.500  0.3685  1.3207 -0.6384
 2931SOL     OW10233   3.590   5.885  11.144 -0.7021 -0.7646 -0.2796
 2931SOL    HW110234   3.524   5.951  11.167 -1.7980 -0.8100 -2.9370
 2931SOL    HW210235   3.673   5.927  11.165 -1.4618 -0.9399  3.7557
 2932SOL     OW10236   3.381   5.021   0.601 -0.1661 -0.3016 -0.1703
 2932SOL    HW110237   3.438   4.961   0.648 -1.1322 -0.4286  0.8833
 2932SOL    HW210238   3.441   5.086   0.564  1.0631 -2.6431 -2.6083
 2933SOL     OW10239   1.197   1.473   9.602 -0.1514 -0.4302 -0.0298
 2933SOL    HW110240   1.235   1.560   9.615  0.0960 -0.5786  0.2588
 2933SOL    HW210241   1.129   1.486   9.535  0.7971 -0.2754 -0.9890
 2934SOL     OW10242   6.071   7.765   7.722 -0.0704  0.1178  0.1232
 2934SOL    HW110243   6.100   7.839   7.776 -1.0419  2.2819 -2.1454
 2934SOL    HW210244   6.150   7.739   7.674  0.0466  0.3325  0.1969
 2935SOL     OW10245   1.225   1.055   8.195  0.1601 -0.4157 -0.0395
 2935SOL    HW110246   1.142   1.045   8.241  0.3301 -0.8554  0.1677
 2935SOL    HW210247   1.287   1.000   8.242  0.2172 -1.2944 -1.0978
 2936SOL     OW10248   4.230   0.158   3.490 -0.0454 -0.0961  0.1441
 2936SOL    HW110249   4.250   0.087   3.428  0.1664 -0.0174  0.1190
 2936SOL    HW210250   4.191   0.227   3.436  0.4389  0.1025  0.0370
 2937SOL     OW10251   2.289   2.908   1.892 -0.7206 -0.1758 -0.2020
 2937SOL    HW110252   2.198   2.881   1.904 -0.5062 -0.6650  0.3588
 2937SOL    HW210253   2.339   2.851   1.950 -0.1702  0.9173  0.4445
 2938SOL     OW10254   7.115   1.339   5.401  0.2658 -0.3013  0.1805
 2938SOL    HW110255   7.110   1.255   5.446  1.2499 -0.2838  0.3440
 2938SOL    HW210256   7.086   1.403   5.465 -1.2916 -0.5885 -0.2106
 2939SOL     OW10257   2.848   3.928   0.762 -0.3225 -0.4198  0.1433
 2939SOL    HW110258   2.788   3.922   0.687 -1.0851 -1.3954  0.8104
 2939SOL    HW210259   2.915   3.990   0.733 -1.8381  1.0257 -0.4996
 2940SOL     OW10260   2.164   7.706   4.817  0.0858  0.3426 -0.0892
 2940SOL    HW110261   2.069   7.707   4.802 -0.0284  1.5770  0.6142
 2940SOL    HW210262   2.198   7.773   4.757  0.3041  1.0910  0.8467
 2941SOL     OW10263   2.103   5.942   2.737  0.4895 -0.0259  0.4147
 2941SOL    HW110264   2.039   6.004   2.702  2.0303  0.4704 -1.6965
 2941SOL    HW210265   2.167   5.996   2.784  1.3648 -0.0627 -0.6929
 2942SOL     OW10266   0.297   5.587   2.872 -0.1734  0.0788 -0.4076
 2942SOL    HW110267   0.369   5.649   2.882 -0.9904  0.9960 -0.0017
 2942SOL    HW210268   0.234   5.614   2.939 -0.9999 -0.5438 -0.9220
 2943SOL     OW10269   0.518   2.452   0.823  0.2675  0.4807  0.5458
 2943SOL    HW110270   0.574   2.415   0.754  1.1789 -0.5016  1.7596
 2943SOL    HW210271   0.555   2.539   0.840  0.6467  0.3425  0.4513
 2944SOL     OW10272   6.263   6.648   6.081  0.0098 -0.2136 -0.0272
 2944SOL    HW110273   6.322   6.648   6.157 -1.4012  1.2258  1.1440
 2944SOL    HW210274   6.176   6.641   6.119 -0.7704  1.1087 -1.4950
 2945SOL     OW10275   4.884   3.010   8.462  0.0385 -0.1789  0.2132
 2945SOL    HW110276   4.909   3.098   8.490  0.5957 -0.7722  1.6716
 2945SOL    HW210277   4.793   3.000   8.489  0.2771 -0.3941  0.9639
 2946SOL     OW10278   4.395   6.145   3.608 -0.5608 -0.2263  0.6530
 2946SOL    HW110279   4.387   6.057   3.646 -1.4651 -0.3192  0.2754
 2946SOL    HW210280   4.412   6.129   3.515 -1.4729 -0.0191  0.4365
 2947SOL     OW10281   1.607   0.955  11.440  0.0061 -0.5055 -0.0869
 2947SOL    HW110282   1.660   0.945  11.518 -2.1558 -0.6147  1.4535
 2947SOL    HW210283   1.613   0.870  11.395 -1.4155 -1.6733  1.7994
 2948SOL     OW10284   3.506   5.434   3.974 -0.7292  0.0561  0.3451
 2948SOL    HW110285   3.462   5.501   4.026  1.2030  0.6410  1.3328
 2948SOL    HW210286   3.552   5.481   3.905  1.8977  0.0460  1.9399
 2949SOL     OW10287   4.066   0.147   8.852 -0.2825  0.0952  0.0804
 2949SOL    HW110288   4.159   0.149   8.874  0.4372  0.5250 -2.6232
 2949SOL    HW210289   4.058   0.080   8.784 -1.7480  0.8046 -0.5031
 2950SOL     OW10290   4.465   7.042   6.187 -0.1295  0.0314 -0.1176
 2950SOL    HW110291   4.419   7.066   6.268  0.8040 -0.2508  0.5177
 2950SOL    HW210292   4.449   6.948   6.177  0.2190 -0.0538  0.0690
 2951SOL     OW10293   7.249   2.103  10.481 -0.2179 -0.0195 -0.2894
 2951SOL    HW110294   7.309   2.067  10.415  0.0734 -0.7945  0.3819
 2951SOL    HW210295   7.194   2.028  10.505 -0.7196  0.4107 -0.0821
 2952SOL     OW10296   0.311   3.244   1.371  0.5923  0.3472 -0.3425
 2952SOL    HW110297   0.272   3.171   1.323  0.9553  0.4990 -0.8792
 2952SOL    HW210298   0.405   3.231   1.362  0.6903 -0.1793  1.1907
 2953SOL     OW10299   4.208   3.113   5.354 -0.2021 -0.1911 -0.4042
 2953SOL    HW110300   4.113   3.126   5.356 -0.0561  1.2120 -1.1838
 2953SOL    HW210301   4.220   3.021   5.378 -2.0042 -1.4356 -3.6299
 2954SOL     OW10302   5.287   3.815  11.249  0.5540 -0.9147 -0.6834
 2954SOL    HW110303   5.203   3.819  11.203  1.1088 -0.9460 -1.7086
 2954SOL    HW210304   5.314   3.723  11.242  1.1027 -0.7215 -1.1273
 2955SOL     OW10305   4.733   7.133   7.281  0.2478  0.2508 -0.9397
 2955SOL    HW110306   4.730   7.160   7.373 -0.4157  0.3769 -0.9966
 2955SOL    HW210307   4.827   7.129   7.261  0.5003 -2.1638  0.4362
 2956SOL     OW10308   2.686   6.267  11.720  0.3814  0.3993 -0.0444
 2956SOL    HW110309   2.703   6.329  11.649  2.6330  1.1988  1.1025
 2956SOL    HW210310   2.604   6.297  11.759 -1.1371 -0.2878 -2.4658
 2957SOL     OW10311   2.118   2.654   2.813  0.1806  0.0133 -0.3425
 2957SOL    HW110312   2.146   2.569   2.778 -1.3375 -1.7109  2.2247
 2957SOL    HW210313   2.153   2.655   2.902  0.1099  2.1133 -0.2961
 2958SOL     OW10314   0.204   2.090   1.500 -0.5207 -0.0218 -0.0148
 2958SOL    HW110315   0.279   2.046   1.540 -0.6020 -0.0001  0.1636
 2958SOL    HW210316   0.238   2.127   1.418 -0.6977 -1.3131 -0.6962
 2959SOL     OW10317   0.499   3.277   5.853  0.1275 -0.4212  0.1123
 2959SOL    HW110318   0.451   3.287   5.771 -0.8871  0.1113  0.7437
 2959SOL    HW210319   0.501   3.366   5.890  1.3990 -0.4771  0.2308
 2960SOL     OW10320   3.711   7.935  10.960  0.4180  0.3509 -0.5068
 2960SOL    HW110321   3.617   7.938  10.943  0.1983  0.7570  0.6567
 2960SOL    HW210322   3.718   7.903  11.050  1.3989  0.3373 -0.5739
 2961SOL     OW10323   6.690   2.749  11.839  0.4095  0.2313 -0.0548
 2961SOL    HW110324   6.619   2.753  11.903 -0.4587 -0.8055 -0.9161
 2961SOL    HW210325   6.739   2.670  11.864 -0.5477 -0.7825 -1.2455
 2962SOL     OW10326   3.517   1.699   3.100  0.1536 -0.1887 -0.5106
 2962SOL    HW110327   3.437   1.652   3.126 -0.4184  1.3647  0.7044
 2962SOL    HW210328   3.552   1.733   3.183  0.9612  0.8463 -1.2594
 2963SOL     OW10329   0.241   2.591   6.014  0.3934 -0.0273 -0.5328
 2963SOL    HW110330   0.289   2.541   5.949 -2.3363 -1.2258 -1.7704
 2963SOL    HW210331   0.206   2.666   5.966 -0.4583 -0.1552 -0.1437
 2964SOL     OW10332   1.298   4.591   3.348 -0.6701  0.2026 -0.3508
 2964SOL    HW110333   1.346   4.673   3.355 -3.0215  1.6849 -0.7479
 2964SOL    HW210334   1.278   4.582   3.255 -2.1384  0.2206 -0.0541
 2965SOL     OW10335   6.486   2.560   2.766 -0.1772 -0.0305 -0.2252
 2965SOL    HW110336   6.506   2.470   2.792  0.0223  0.1906  0.4175
 2965SOL    HW210337   6.415   2.552   2.703  0.6987 -0.7206 -1.1530
 2966SOL     OW10338   4.078   1.756   7.153  0.1976 -0.4029  0.1913
 2966SOL    HW110339   4.151   1.800   7.198 -0.8608  0.4819  1.0940
 2966SOL    HW210340   4.088   1.781   7.062  0.8617 -0.0602  0.3506
 2967SOL     OW10341   0.088   1.618   2.546  0.6684 -0.0135 -0.1430
 2967SOL    HW110342   0.025   1.620   2.618 -0.1277  0.1430 -0.8212
 2967SOL    HW210343   0.150   1.688   2.566  0.3816  0.1115  0.3240
 2968SOL     OW10344   3.330   2.783   4.764  0.4135  0.0716 -0.3480
 2968SOL    HW110345   3.288   2.861   4.801  1.7117  1.5002 -1.7354
 2968SOL    HW210346   3.321   2.792   4.670  1.3282 -1.0273 -0.5736
 2969SOL     OW10347   0.964   2.240   8.192 -0.0427 -0.1651  0.5010
 2969SOL    HW110348   0.876   2.272   8.215  0.7386  1.5071  1.3080
 2969SOL    HW210349   1.014   2.246   8.273  0.5219 -2.3474  0.3879
 2970SOL     OW10350   5.858   0.911   1.777 -0.0609  0.0170  0.3438
 2970SOL    HW110351   5.801   0.944   1.707  1.5797 -0.0299 -1.0926
 2970SOL    HW210352   5.932   0.972   1.778  0.3879 -0.5270  1.4150
 2971SOL     OW10353   6.654   5.562   6.052  0.4678 -0.0749  0.4077
 2971SOL    HW110354   6.608   5.545   5.970  0.3679  0.2803  0.3900
 2971SOL    HW210355   6.737   5.602   6.025  0.1758  0.6052  0.5065
 2972SOL     OW10356   4.083   7.160   1.763 -0.5554 -0.1125 -0.0953
 2972SOL    HW110357   4.017   7.093   1.745 -0.2330 -0.2948 -0.6257
 2972SOL    HW210358   4.158   7.111   1.797 -0.1566 -0.0765 -0.9088
 2973SOL     OW10359   2.122   4.008   1.115  0.2425 -0.2221  0.0827
 2973SOL    HW110360   2.083   3.921   1.125  0.9149 -0.6427 -0.8542
 2973SOL    HW210361   2.205   3.992   1.070  1.0746  0.7479  1.1952
 2974SOL     OW10362   7.396   4.293   1.488  0.6259  0.0972 -0.6030
 2974SOL    HW110363   7.338   4.307   1.562  0.6093 -0.3688 -0.5258
 2974SOL    HW210364   7.343   4.313   1.411  0.3089 -0.4936 -0.5407
 2975SOL     OW10365   2.188   5.621   3.894 -0.0907 -0.1289  0.0027
 2975SOL    HW110366   2.271   5.634   3.941  0.0152  2.3602 -0.7049
 2975SOL    HW210367   2.160   5.710   3.871 -0.9101 -1.0893 -3.2381
 2976SOL     OW10368   2.438   6.000   8.573  0.2410  0.0180  0.3609
 2976SOL    HW110369   2.484   5.918   8.592 -1.1087 -0.7803  0.2913
 2976SOL    HW210370   2.482   6.035   8.496  0.8571 -0.6271  0.4086
 2977SOL     OW10371   0.434   7.317   5.175  0.2915  0.0035 -0.1262
 2977SOL    HW110372   0.528   7.308   5.195  0.2419 -1.7084 -0.4990
 2977SOL    HW210373   0.406   7.228   5.152 -1.6754  0.2876  0.9918
 2978SOL     OW10374   1.045   0.346   3.861 -0.0016  0.4637 -0.4007
 2978SOL    HW110375   1.133   0.352   3.899  1.2818  1.2642 -3.2201
 2978SOL    HW210376   1.031   0.432   3.820 -1.9695  0.2197 -0.3320
 2979SOL     OW10377   5.677   0.051   2.262 -1.2876 -0.6271  0.4659
 2979SOL    HW110378   5.754   0.001   2.289 -0.9780  0.7237  2.2107
 2979SOL    HW210379   5.710   0.111   2.195 -0.7550  0.0692  1.3345
 2980SOL     OW10380   5.679   5.323  10.141  0.0359  0.6782  0.2188
 2980SOL    HW110381   5.613   5.289  10.082  1.6706 -0.7604 -0.8849
 2980SOL    HW210382   5.662   5.277  10.224 -1.0349  1.2075  0.3091
 2981SOL     OW10383   6.039   5.105   5.071  1.7617  0.0039 -0.0703
 2981SOL    HW110384   6.062   5.192   5.102  0.4811  0.2753  0.1649
 2981SOL    HW210385   5.999   5.062   5.147  0.9788 -0.2393 -0.6073
 2982SOL     OW10386   5.633   5.012   1.879 -0.1290  0.5169 -0.1146
 2982SOL    HW110387   5.699   4.956   1.920  1.7921  3.2764  0.8961
 2982SOL    HW210388   5.624   4.977   1.790  1.5086 -0.9472  0.2383
 2983SOL     OW10389   1.468   3.937   0.724 -0.2835 -0.0274 -0.3597
 2983SOL    HW110390   1.559   3.944   0.693  0.1998 -0.5014  0.8651
 2983SOL    HW210391   1.430   3.869   0.669 -0.2639  0.9800 -1.6653
 2984SOL     OW10392   6.915   3.073   3.030  0.0794  0.3089  0.0491
 2984SOL    HW110393   6.881   3.089   2.942  2.1369  0.6308 -0.7448
 2984SOL    HW210394   6.913   3.159   3.072  0.2361  0.3914 -0.1114
 2985SOL     OW10395   2.111   2.621   8.884  0.4966 -0.0004 -0.0664
 2985SOL    HW110396   2.090   2.527   8.886 -0.9641  0.3124  0.0909
 2985SOL    HW210397   2.207   2.623   8.889  0.5338 -1.4656  0.7698
 2986SOL     OW10398   2.309   2.404   5.066  0.5671 -0.2498  0.7016
 2986SOL    HW110399   2.341   2.315   5.079  0.8578 -0.3443 -0.4911
 2986SOL    HW210400   2.389   2.457   5.058  0.4154  0.4084  3.0136
 2987SOL     OW10401   5.851   0.496   2.742  0.1604  0.2369  0.0491
 2987SOL    HW110402   5.816   0.585   2.739  1.7912  0.9284  0.2306
 2987SOL    HW210403   5.853   0.468   2.651  1.6391  1.2593 -0.2732
 2988SOL     OW10404   0.626   7.911   3.662 -0.1701  0.0181 -0.4959
 2988SOL    HW110405   0.601   7.983   3.604 -1.2563 -0.2576 -0.3895
 2988SOL    HW210406   0.547   7.893   3.714 -0.3166 -1.9969 -1.3021
 2989SOL     OW10407   0.024   2.613  12.056  0.2107 -0.0397  0.0803
 2989SOL    HW110408   0.047   2.639  12.145  0.8786 -0.3547  0.0097
 2989SOL    HW210409  -0.045   2.548  12.066 -0.5880  0.8229  0.3112
 2990SOL     OW10410   2.842   3.162   0.847 -0.1569 -0.0091 -0.1468
 2990SOL    HW110411   2.763   3.108   0.842 -0.7667  0.9142 -0.9895
 2990SOL    HW210412   2.884   3.152   0.762  0.9118 -0.8517  0.4473
 2991SOL     OW10413   2.909   2.814   1.196  0.0228  0.2580 -0.0001
 2991SOL    HW110414   2.984   2.843   1.143 -1.6484  2.0743 -1.5560
 2991SOL    HW210415   2.908   2.873   1.271  0.8476 -0.6038  0.7162
 2992SOL     OW10416   3.240   0.814   2.625  0.0196 -0.0291  0.5427
 2992SOL    HW110417   3.234   0.882   2.692  0.7896 -0.0456  0.6365
 2992SOL    HW210418   3.323   0.770   2.643  0.5304  0.3526 -0.7803
 2993SOL     OW10419   7.095   6.653   7.460 -0.4696 -0.4307 -0.3885
 2993SOL    HW110420   7.169   6.704   7.491 -0.1804 -1.7948  1.3712
 2993SOL    HW210421   7.023   6.716   7.455  0.1464  0.3891  0.5960
 2994SOL     OW10422   3.119   7.110   1.347  0.4113 -0.3915 -0.2230
 2994SOL    HW110423   3.073   7.165   1.410  0.2190  0.3726 -1.0166
 2994SOL    HW210424   3.052   7.053   1.310  0.0161  0.8789 -1.5478
 2995SOL     OW10425   0.814   1.472  11.841 -0.1128  0.4224 -0.3203
 2995SOL    HW110426   0.752   1.451  11.910  1.1832  0.2023  0.8232
 2995SOL    HW210427   0.810   1.567  11.831 -0.5379  0.4174 -0.1755
 2996SOL     OW10428   7.301   5.334   1.659  0.1672  0.1731  0.5336
 2996SOL    HW110429   7.366   5.376   1.603 -0.6127  1.7241  0.7304
 2996SOL    HW210430   7.287   5.396   1.730  0.6539 -1.4675  2.1411
 2997SOL     OW10431   3.128   7.453   9.452 -0.0182 -0.2409  0.0876
 2997SOL    HW110432   3.143   7.471   9.544 -0.2355 -0.1369  0.1031
 2997SOL    HW210433   3.183   7.377   9.432 -0.0233 -0.3021  0.3153
 2998SOL     OW10434   4.336   0.062   1.528  0.5775  0.3446  0.3405
 2998SOL    HW110435   4.291   0.130   1.580  1.6146  1.1263  0.2581
 2998SOL    HW210436   4.379   0.007   1.594  2.6199  1.8484  0.3636
 2999SOL     OW10437   2.184   3.632   3.020  0.5342  0.8375 -0.0011
 2999SOL    HW110438   2.112   3.624   2.957 -0.0728  0.1511  0.7493
 2999SOL    HW210439   2.205   3.542   3.044  1.7169  1.0342 -0.2706
 3000SOL     OW10440   2.067   7.002   8.529 -0.3114  0.6750  0.4559
 3000SOL    HW110441   2.088   7.081   8.580 -1.0982  1.2725 -0.1255
 3000SOL    HW210442   2.088   7.025   8.439 -1.3482  0.5231  0.1646
 3001SOL     OW10443   5.180   0.018   7.858  0.1381 -0.7419 -0.0783
 3001SOL    HW110444   5.262  -0.026   7.839 -0.2711 -0.9719 -1.3850
 3001SOL    HW210445   5.187   0.103   7.815 -0.0934 -0.5469  0.2634
 3002SOL     OW10446   4.146   0.901   2.852  0.0677  0.0246  0.1566
 3002SOL    HW110447   4.160   0.844   2.776  0.9401 -0.9168  0.9854
 3002SOL    HW210448   4.061   0.874   2.886  0.1973 -0.3702  0.1787
 3003SOL     OW10449   5.894   1.296   2.447 -0.4452 -0.0635  0.1663
 3003SOL    HW110450   5.825   1.362   2.448 -1.0284 -0.5523 -2.2658
 3003SOL    HW210451   5.967   1.338   2.401 -0.9958 -1.2153 -1.8424
 3004SOL     OW10452   4.534   1.812   1.753 -0.2251 -0.0022  0.2056
 3004SOL    HW110453   4.593   1.842   1.684 -1.3458  3.3643  0.5026
 3004SOL    HW210454   4.496   1.731   1.719  2.3298 -0.7007 -1.2332
 3005SOL     OW10455   6.738   6.297   0.629 -0.0071 -0.2772 -0.3919
 3005SOL    HW110456   6.643   6.298   0.633 -0.0549  0.4838 -1.3914
 3005SOL    HW210457   6.758   6.277   0.537  0.7898 -0.2961 -0.2218
 3006SOL     OW10458   6.082   3.422   3.916 -0.7989 -0.2869  0.1948
 3006SOL    HW110459   6.171   3.428   3.953 -0.8387  0.6988  0.1768
 3006SOL    HW210460   6.052   3.513   3.913 -1.1967 -0.4418 -1.3080
 3007SOL     OW10461   1.480   1.490   5.577 -0.3921 -0.2994 -0.1491
 3007SOL    HW110462   1.430   1.451   5.505 -0.2490  1.6947 -1.4135
 3007SOL    HW210463   1.452   1.582   5.579  1.3213  0.2465  0.8231
 3008SOL     OW10464   4.550   2.496   7.810 -0.3322  0.2668  0.4531
 3008SOL    HW110465   4.555   2.423   7.871  1.1274  0.6630  0.8689
 3008SOL    HW210466   4.482   2.553   7.845 -2.2475 -1.3586 -0.4665
 3009SOL     OW10467   2.701   3.048   0.210 -0.2496  0.0586  0.2972
 3009SOL    HW110468   2.648   3.076   0.285  1.8303  1.8444  1.2016
 3009SOL    HW210469   2.688   3.117   0.145 -2.4378 -1.7260 -1.3157
 3010SOL     OW10470   3.190   7.559   8.449 -0.0443  0.1036  1.0809
 3010SOL    HW110471   3.216   7.607   8.528  0.2116  1.3177  0.2905
 3010SOL    HW210472   3.102   7.593   8.429  0.8403  1.6042 -0.4775
 3011SOL     OW10473   6.214   5.238   7.959 -0.5657  0.5500 -0.1094
 3011SOL    HW110474   6.174   5.152   7.952  0.0131  0.2498  0.1664
 3011SOL    HW210475   6.299   5.228   7.914 -0.7696  1.1527 -0.6448
 3012SOL     OW10476   6.497   2.961   5.898  0.1923 -0.0651  0.6157
 3012SOL    HW110477   6.476   3.052   5.922 -0.2345  0.0783 -0.2490
 3012SOL    HW210478   6.503   2.915   5.981 -0.0771  0.6567  1.0453
 3013SOL     OW10479   6.800   5.006   0.946  0.1618 -0.8439  0.8262
 3013SOL    HW110480   6.708   5.015   0.971 -1.1543  2.7791 -3.8917
 3013SOL    HW210481   6.806   4.919   0.907 -1.5770 -0.7924  0.3661
 3014SOL     OW10482   1.012   6.636   1.504  0.1325 -0.1625 -0.2528
 3014SOL    HW110483   0.928   6.642   1.460  1.2525 -0.1317 -2.5341
 3014SOL    HW210484   1.046   6.726   1.503 -0.3744  0.1343  2.0176
 3015SOL     OW10485   0.944   1.276   2.853 -0.8023 -0.1464  0.0316
 3015SOL    HW110486   1.024   1.304   2.897 -0.9176  0.0686  0.1018
 3015SOL    HW210487   0.975   1.229   2.775 -0.6113  0.0929 -0.0384
 3016SOL     OW10488   4.764   4.961  11.423 -0.0515 -0.5897  0.6575
 3016SOL    HW110489   4.699   5.031  11.412 -0.7974 -1.2281  0.9383
 3016SOL    HW210490   4.805   4.954  11.336  0.5059  0.6330  0.7939
 3017SOL     OW10491   5.139   0.732  10.949 -0.2568  0.4028  0.5705
 3017SOL    HW110492   5.093   0.686  11.019 -2.0604  0.6384 -0.3918
 3017SOL    HW210493   5.095   0.817  10.943  1.4390  1.3385  0.7126
 3018SOL     OW10494   5.559   6.610   9.347  0.0979 -0.5280  0.0992
 3018SOL    HW110495   5.468   6.641   9.337  0.4169  0.8839  1.3143
 3018SOL    HW210496   5.589   6.598   9.257 -1.2216 -0.7850 -0.3348
 3019SOL     OW10497   6.605   1.846   4.667 -0.1197 -0.0414  0.1794
 3019SOL    HW110498   6.650   1.770   4.704  0.8305 -0.0342 -0.9224
 3019SOL    HW210499   6.649   1.863   4.584 -1.1756  0.9142 -0.2214
 3020SOL     OW10500   7.215   0.245   8.708  0.5269  0.0778  0.5339
 3020SOL    HW110501   7.273   0.230   8.783  1.0960 -0.2250  0.0403
 3020SOL    HW210502   7.130   0.212   8.737  0.6916  0.1630  1.1234
 3021SOL     OW10503   7.171   5.898   6.804  0.2726  0.5787  0.2242
 3021SOL    HW110504   7.183   5.960   6.876  0.1629  1.8250 -0.7964
 3021SOL    HW210505   7.082   5.865   6.815 -0.1381  1.5882  0.0685
 3022SOL     OW10506   7.721   6.812   0.094 -0.3849 -0.3273  0.2942
 3022SOL    HW110507   7.686   6.730   0.059 -0.1862 -0.4388  0.3570
 3022SOL    HW210508   7.663   6.879   0.059  0.5067 -0.3147 -1.2394
 3023SOL     OW10509   4.718   0.960   0.647  0.3559  0.1645 -0.1756
 3023SOL    HW110510   4.646   1.011   0.685  0.2788 -0.2101  0.1907
 3023SOL    HW210511   4.705   0.872   0.681  2.2123  0.5162  1.6284
 3024SOL     OW10512   2.467   6.426  10.141 -0.0373  0.3652  0.2668
 3024SOL    HW110513   2.515   6.395  10.065 -0.0434 -0.1315  0.4646
 3024SOL    HW210514   2.376   6.431  10.112 -0.3063 -1.3979  0.7024
 3025SOL     OW10515   0.586   7.402   7.610  0.1594  0.0934 -0.1352
 3025SOL    HW110516   0.611   7.323   7.563  2.3297 -0.5612  1.9007
 3025SOL    HW210517   0.502   7.381   7.651 -0.2986 -0.3673 -1.2826
 3026SOL     OW10518   3.898   2.005   2.626  0.3873  0.5108 -0.0074
 3026SOL    HW110519   3.910   2.026   2.719  0.4544  2.2823 -0.3829
 3026SOL    HW210520   3.985   2.017   2.587  0.3619 -0.2355 -0.3030
 3027SOL     OW10521   5.178   4.200  10.872  0.0818  0.5613 -0.3918
 3027SOL    HW110522   5.174   4.293  10.896  0.6955  0.5161 -0.0915
 3027SOL    HW210523   5.106   4.159  10.919 -0.7820  1.0340 -1.2530
 3028SOL     OW10524   3.934   5.491   1.158  0.0422 -0.2819 -0.1917
 3028SOL    HW110525   3.982   5.498   1.240 -0.8987  0.4632  0.3145
 3028SOL    HW210526   3.960   5.569   1.108 -0.1392 -0.2208 -0.1906
 3029SOL     OW10527   4.304   7.063   4.624  0.2614  0.0978  0.7375
 3029SOL    HW110528   4.270   7.003   4.557 -0.7899  1.6809 -0.2285
 3029SOL    HW210529   4.228   7.087   4.676  0.5375  1.0414  0.7305
 3030SOL     OW10530   5.378   5.254   0.542  0.0684  0.0167  0.2174
 3030SOL    HW110531   5.399   5.329   0.598  1.3790 -0.1066 -0.0820
 3030SOL    HW210532   5.294   5.277   0.501 -0.3322  0.6114  1.3283
 3031SOL     OW10533   1.242   7.187  12.372  0.1221 -0.2238 -0.4098
 3031SOL    HW110534   1.318   7.163  12.318  0.2307 -1.3819  0.2371
 3031SOL    HW210535   1.268   7.269  12.414  0.6436 -0.1181 -0.9221
 3032SOL     OW10536   2.355   5.210  10.419 -0.5818 -0.1524 -0.1697
 3032SOL    HW110537   2.367   5.256  10.336 -0.3168  1.7745  0.8616
 3032SOL    HW210538   2.296   5.267  10.469  0.5980 -0.3896  1.5760
 3033SOL     OW10539   4.527   6.028  10.013  0.2709 -0.6546  0.3415
 3033SOL    HW110540   4.573   5.944  10.017  0.8541 -0.5016 -1.9005
 3033SOL    HW210541   4.490   6.031   9.925 -0.0712  1.2706  0.5064
 3034SOL     OW10542   7.356   0.589   0.209  0.3780  0.2260  0.4099
 3034SOL    HW110543   7.354   0.651   0.136  2.8983  0.9749  0.8942
 3034SOL    HW210544   7.375   0.643   0.286 -0.7665 -0.7443  1.4155
 3035SOL     OW10545   3.476   0.617  11.739  0.4581  0.4461 -0.0649
 3035SOL    HW110546   3.440   0.638  11.653  0.2484 -0.1302 -0.1228
 3035SOL    HW210547   3.571   0.617  11.726  0.4163 -0.1210 -0.4178
 3036SOL     OW10548   7.438   1.500   9.876  0.0807 -0.1117  0.5082
 3036SOL    HW110549   7.369   1.455   9.827 -0.9651  0.9044  1.0202
 3036SOL    HW210550   7.484   1.552   9.810 -0.7227  0.5235  0.4482
 3037SOL     OW10551   7.145   5.669   1.649 -0.3912  0.3277  0.6062
 3037SOL    HW110552   7.108   5.748   1.609  0.6766 -0.7805 -2.9982
 3037SOL    HW210553   7.069   5.618   1.677 -1.1979  1.4235  0.4642
 3038SOL     OW10554   5.488   3.848   1.043 -0.0604  0.0028  0.5945
 3038SOL    HW110555   5.401   3.874   1.012  0.2145  0.5674  0.2900
 3038SOL    HW210556   5.549   3.900   0.990  0.4278  0.6784  1.7731
 3039SOL     OW10557   2.529   5.525   3.650  0.6090 -0.7843 -0.4259
 3039SOL    HW110558   2.468   5.558   3.716  0.0392  0.4314 -1.5138
 3039SOL    HW210559   2.589   5.468   3.699 -0.5368 -0.8986  0.9090
 3040SOL     OW10560   3.551   1.949   7.620 -0.0311  0.0314 -0.0219
 3040SOL    HW110561   3.522   2.034   7.588  0.3362  0.7166  1.3613
 3040SOL    HW210562   3.639   1.965   7.655  1.0632 -1.4459 -1.8903
 3041SOL     OW10563   5.830   6.955   2.614 -0.3736 -0.0928 -0.7199
 3041SOL    HW110564   5.906   6.919   2.568  0.8534 -1.1977  1.9604
 3041SOL    HW210565   5.832   7.049   2.593  2.1732  0.0342 -0.2427
 3042SOL     OW10566   5.862   7.504   8.325 -0.0275 -0.5398  0.3951
 3042SOL    HW110567   5.932   7.521   8.263 -0.6852  2.0232  0.2366
 3042SOL    HW210568   5.905   7.458   8.397  0.8256 -3.2415 -1.6687
 3043SOL     OW10569   4.005   4.941  11.293 -0.2763 -0.1214 -0.3007
 3043SOL    HW110570   4.091   4.961  11.258 -0.4086 -0.2437 -0.6975
 3043SOL    HW210571   3.999   4.845  11.290 -0.7823 -0.0704 -1.1306
 3044SOL     OW10572   4.824   5.603   9.454 -0.1790 -0.0740 -0.1148
 3044SOL    HW110573   4.750   5.575   9.400 -0.7186 -0.1079  0.6289
 3044SOL    HW210574   4.804   5.569   9.541  0.4351  0.4000  0.2152
 3045SOL     OW10575   5.090   2.559   9.549 -0.2830 -0.2868 -0.1540
 3045SOL    HW110576   5.040   2.538   9.470  0.8392  0.5778 -1.1454
 3045SOL    HW210577   5.080   2.654   9.559 -1.6747 -0.5843  1.6715
 3046SOL     OW10578   6.016   5.395   1.685 -0.1155  0.1402 -0.4337
 3046SOL    HW110579   5.938   5.346   1.658 -0.2674  0.4336 -0.5354
 3046SOL    HW210580   6.019   5.385   1.780  0.2047 -0.5824 -0.5187
 3047SOL     OW10581   5.270   0.029   6.620  0.4712  0.3012  0.5921
 3047SOL    HW110582   5.321  -0.041   6.578 -0.6902 -0.4614  0.4026
 3047SOL    HW210583   5.320   0.049   6.700  0.6758 -0.9719  0.8160
 3048SOL     OW10584   1.461   0.117   8.502  0.1625  0.3362  0.0280
 3048SOL    HW110585   1.502   0.101   8.417 -1.5513 -0.0411 -0.7720
 3048SOL    HW210586   1.426   0.206   8.496 -2.8753 -0.7946 -1.0120
 3049SOL     OW10587   0.739   5.241   0.771  0.4302 -0.3983  0.1902
 3049SOL    HW110588   0.721   5.315   0.828  0.3095 -0.0264 -0.3204
 3049SOL    HW210589   0.831   5.220   0.788  0.4744 -0.1090  0.3192
 3050SOL     OW10590   5.750   7.780   9.453 -0.1263 -0.2671  0.3075
 3050SOL    HW110591   5.716   7.862   9.486 -2.1250 -0.9168 -0.0355
 3050SOL    HW210592   5.837   7.772   9.493 -0.5663  1.1931  1.6258
 3051SOL     OW10593   4.503   2.150   9.209 -0.1146 -0.6551 -0.3556
 3051SOL    HW110594   4.533   2.217   9.270 -1.2809  1.7096 -2.1900
 3051SOL    HW210595   4.497   2.070   9.261  0.3574  0.8894  2.2151
 3052SOL     OW10596   3.083   0.257  10.063 -0.3001 -0.3208  0.6068
 3052SOL    HW110597   3.128   0.312  10.000 -2.4302  0.1051 -0.6330
 3052SOL    HW210598   3.052   0.318  10.130 -0.8190 -0.3200  0.3653
 3053SOL     OW10599   6.082   4.377   4.203  0.0288  0.4091  0.0297
 3053SOL    HW110600   6.131   4.446   4.247 -1.5462  1.3253  0.4528
 3053SOL    HW210601   6.145   4.334   4.147  1.5777  0.7276  1.4435
 3054SOL     OW10602   7.569   5.935   8.151 -0.1158  0.6583  0.4771
 3054SOL    HW110603   7.483   5.966   8.178 -0.4699 -0.9258  1.3172
 3054SOL    HW210604   7.551   5.863   8.090  0.5078 -0.9898  2.1387
 3055SOL     OW10605   0.571   3.475   8.569  0.5349  0.6500  0.5495
 3055SOL    HW110606   0.558   3.529   8.491  0.4727  0.7697  0.6426
 3055SOL    HW210607   0.663   3.489   8.592  0.3041  1.3841  1.0653
 3056SOL     OW10608   7.445   5.510  12.355  0.1827 -0.3094  0.0150
 3056SOL    HW110609   7.385   5.578  12.385  0.4624 -0.1498  0.2072
 3056SOL    HW210610   7.390   5.432  12.346 -0.4083  0.2225 -1.3863
 3057SOL     OW10611   7.293   2.684   6.858  0.2596 -0.0891  0.0918
 3057SOL    HW110612   7.283   2.777   6.877 -0.7248 -0.1388 -0.0847
 3057SOL    HW210613   7.307   2.643   6.943 -3.1524 -0.2076  0.7626
 3058SOL     OW10614   5.303   0.843   2.759  0.0005 -0.6297  0.0059
 3058SOL    HW110615   5.350   0.767   2.794 -0.2139 -0.0519  1.6121
 3058SOL    HW210616   5.369   0.912   2.757 -0.3615 -0.2497  0.7489
 3059SOL     OW10617   4.361   5.367   4.145  0.7108 -0.4548  0.2454
 3059SOL    HW110618   4.441   5.418   4.134  0.8073 -1.0116 -2.0023
 3059SOL    HW210619   4.360   5.307   4.071 -1.5614 -0.7692  0.4656
 3060SOL     OW10620   2.724   5.001  10.469  0.1554  0.0183  0.3643
 3060SOL    HW110621   2.663   4.958  10.528 -1.5506  2.4967  0.5379
 3060SOL    HW210622   2.717   4.951  10.387  1.3368 -2.4454  1.6425
 3061SOL     OW10623   2.706   7.021   0.893 -0.1717 -0.0443  0.2070
 3061SOL    HW110624   2.688   6.927   0.895  1.1894 -0.3036  1.0741
 3061SOL    HW210625   2.705   7.043   0.800 -3.6988 -0.2176  0.0455
 3062SOL     OW10626   6.481   6.159   2.768  0.2024  0.9440 -0.5065
 3062SOL    HW110627   6.416   6.213   2.723 -1.2565 -1.1476 -1.0616
 3062SOL    HW210628   6.510   6.096   2.701  1.5828  0.7707  0.2093
 3063SOL     OW10629   5.134   4.585   2.179 -0.3771  0.3276 -0.0838
 3063SOL    HW110630   5.066   4.529   2.215  0.3303 -1.1798 -0.9891
 3063SOL    HW210631   5.212   4.564   2.229  0.0730 -0.0912 -0.9373
 3064SOL     OW10632   5.206   4.303   6.126 -0.0224 -0.1027  0.3663
 3064SOL    HW110633   5.189   4.210   6.142  0.1819 -0.2931 -0.4892
 3064SOL    HW210634   5.119   4.343   6.126 -0.2700 -0.5740 -0.8841
 3065SOL     OW10635   6.243   0.926   3.131  0.2578 -0.5016  0.2422
 3065SOL    HW110636   6.187   0.862   3.086  0.4988  0.0151 -0.8432
 3065SOL    HW210637   6.316   0.940   3.070 -1.0853  2.7483 -0.8400
 3066SOL     OW10638   3.811   1.748   0.704  0.0578  0.1710 -0.0809
 3066SOL    HW110639   3.785   1.777   0.617  2.1803  0.4935 -0.6513
 3066SOL    HW210640   3.807   1.652   0.699 -0.6658  0.2049 -0.2430
 3067SOL     OW10641   7.315   0.194   2.901 -0.2921  0.2486 -0.3439
 3067SOL    HW110642   7.230   0.151   2.912  0.5294 -1.5844 -0.8281
 3067SOL    HW210643   7.341   0.174   2.812  1.1265 -0.1007  0.1318
 3068SOL     OW10644   6.902   5.188   4.662 -0.1948  0.3453 -0.1393
 3068SOL    HW110645   6.950   5.109   4.638  0.8297  1.1494 -0.8806
 3068SOL    HW210646   6.814   5.174   4.627 -1.4763 -2.3110  3.5677
 3069SOL     OW10647   6.321   7.095   4.164  0.4100 -0.4137 -0.3702
 3069SOL    HW110648   6.369   7.051   4.093  0.4987 -0.0671 -0.5271
 3069SOL    HW210649   6.243   7.041   4.178  0.1878 -0.2582 -1.0082
 3070SOL     OW10650   5.214   0.321   9.767 -0.2543  0.0787 -0.5042
 3070SOL    HW110651   5.221   0.407   9.809  0.9694  0.4558 -1.4334
 3070SOL    HW210652   5.236   0.258   9.835 -1.6039  0.4435  0.3128
 3071SOL     OW10653   7.454   7.334  10.865  0.4509  0.1495 -0.2714
 3071SOL    HW110654   7.517   7.402  10.888  0.1272  0.4694 -0.3310
 3071SOL    HW210655   7.430   7.353  10.774  1.1114 -0.6325 -0.6254
 3072SOL     OW10656   7.591   1.238   8.763  0.1589 -0.3786  1.2271
 3072SOL    HW110657   7.578   1.314   8.705  1.6340 -0.5037  0.6958
 3072SOL    HW210658   7.584   1.163   8.705  0.0652 -0.5931  1.5143
 3073SOL     OW10659   3.562   7.733   1.613  0.4780  0.3618 -0.0128
 3073SOL    HW110660   3.654   7.747   1.638 -0.2442  1.1618  2.5633
 3073SOL    HW210661   3.514   7.741   1.696 -1.8489 -0.8699 -1.1494
 3074SOL     OW10662   3.203   4.445  11.004  0.3090  0.4012 -0.2400
 3074SOL    HW110663   3.148   4.405  11.071 -0.0360  1.5173  0.1678
 3074SOL    HW210664   3.288   4.458  11.046 -0.0405  1.5310  0.1713
 3075SOL     OW10665   2.824   5.640   2.295  0.0071  0.0435 -0.4259
 3075SOL    HW110666   2.772   5.673   2.221 -0.3476  0.6074  0.0706
 3075SOL    HW210667   2.760   5.600   2.353  0.0220  1.3721  0.5354
 3076SOL     OW10668   4.627   6.405  12.401  0.1530  0.5387  0.0373
 3076SOL    HW110669   4.676   6.326  12.424 -0.3375  0.6985  1.7722
 3076SOL    HW210670   4.668   6.436  12.321 -0.3515 -2.0830 -1.3570
 3077SOL     OW10671   2.828   0.817   8.575 -0.1696  0.2352 -0.2688
 3077SOL    HW110672   2.780   0.802   8.657 -1.6575  0.2129 -1.1113
 3077SOL    HW210673   2.872   0.734   8.558  0.9865  0.5451  1.0017
 3078SOL     OW10674   1.951   0.072   0.056  0.4599  0.3714  0.0517
 3078SOL    HW110675   1.941   0.161   0.021  0.1247  1.1647  1.9962
 3078SOL    HW210676   1.862   0.035   0.053  0.3699  0.5590  0.3343
 3079SOL     OW10677   2.081   1.333   6.977  0.2746 -0.1620  0.0008
 3079SOL    HW110678   2.120   1.262   6.925  0.0868 -0.5012  0.3222
 3079SOL    HW210679   1.999   1.297   7.010  0.6910 -0.1740  1.0591
 3080SOL     OW10680   0.406   3.582   5.650 -0.4077  0.4657 -0.0141
 3080SOL    HW110681   0.498   3.558   5.645 -0.5757 -0.2300  0.0328
 3080SOL    HW210682   0.405   3.668   5.692  0.1937  0.3032  0.3423
 3081SOL     OW10683   6.050   0.735   3.279 -0.3349 -0.9235 -0.0608
 3081SOL    HW110684   6.081   0.809   3.332  0.9958 -0.6301 -1.1613
 3081SOL    HW210685   6.039   0.663   3.341  0.9774 -0.5399  0.6522
 3082SOL     OW10686   1.857   4.454   2.049  0.4821 -0.0844  0.0037
 3082SOL    HW110687   1.776   4.410   2.021  1.0597 -3.0874  2.4712
 3082SOL    HW210688   1.919   4.438   1.977  0.0898 -1.7494 -0.0162
 3083SOL     OW10689   2.950   5.284   8.352 -0.3234  0.0972 -0.3131
 3083SOL    HW110690   2.969   5.345   8.423 -2.2076  0.2528  0.1154
 3083SOL    HW210691   2.954   5.197   8.393  1.0925 -0.0109 -0.6310
 3084SOL     OW10692   2.342   6.382   0.162 -0.1632 -0.4703 -0.1109
 3084SOL    HW110693   2.359   6.377   0.256  0.1969  0.2593 -0.1294
 3084SOL    HW210694   2.247   6.373   0.154 -0.2831  0.2525  0.3933
 3085SOL     OW10695   1.699   6.269  10.516 -0.0114  0.1567 -0.6763
 3085SOL    HW110696   1.641   6.228  10.579  1.2014 -0.7007 -0.0696
 3085SOL    HW210697   1.785   6.268  10.558  0.6954  0.2040 -2.0521
 3086SOL     OW10698   7.083   2.513  10.852  0.7059 -0.0437  0.1739
 3086SOL    HW110699   7.031   2.509  10.771 -0.1475 -0.3387  0.7165
 3086SOL    HW210700   7.158   2.457  10.835  0.1243 -0.7510 -0.1464
 3087SOL     OW10701   2.797   5.186   5.695  0.0279  0.0286 -0.4211
 3087SOL    HW110702   2.831   5.155   5.779 -1.1547 -1.2505 -0.3692
 3087SOL    HW210703   2.729   5.123   5.672  0.3873  0.2895 -2.4044
 3088SOL     OW10704   1.082   7.951   0.398  0.0950  0.3547  0.0096
 3088SOL    HW110705   1.136   7.991   0.330  1.6162 -1.2626  0.1773
 3088SOL    HW210706   1.094   8.007   0.475  0.0567  1.0126 -0.4531
 3089SOL     OW10707   0.207   0.269   7.513  0.2272 -0.6271 -0.7747
 3089SOL    HW110708   0.280   0.210   7.496  1.4660  0.1389  1.3858
 3089SOL    HW210709   0.172   0.241   7.597 -0.6738  0.2534 -0.8317
 3090SOL     OW10710   5.228   6.579  10.292  0.2143 -0.2157 -0.4014
 3090SOL    HW110711   5.163   6.524  10.248  0.3430 -0.3995 -0.3604
 3090SOL    HW210712   5.215   6.666  10.254  0.0337 -0.2798 -0.4898
 3091SOL     OW10713   5.078   0.166   1.488  0.0920  0.0809 -0.0338
 3091SOL    HW110714   5.091   0.156   1.582 -1.8742 -2.1007  0.1068
 3091SOL    HW210715   5.133   0.098   1.449 -0.6056 -0.3570 -0.2832
 3092SOL     OW10716   6.348   7.326  11.547  0.2913  0.4007  0.6090
 3092SOL    HW110717   6.257   7.354  11.542  0.6339  1.3838 -1.1066
 3092SOL    HW210718   6.390   7.370  11.473  1.9779 -0.6979  0.8671
 3093SOL     OW10719   6.326   1.248   3.921 -0.6348  0.2011 -0.4229
 3093SOL    HW110720   6.326   1.202   3.837 -0.2129 -1.8438  0.6430
 3093SOL    HW210721   6.353   1.337   3.899  0.0286 -0.4318 -2.3728
 3094SOL     OW10722   6.138   3.035   3.253  0.5646  0.4184 -0.2845
 3094SOL    HW110723   6.227   3.003   3.270  0.3974  0.7019  1.1847
 3094SOL    HW210724   6.138   3.054   3.159  2.0677  0.4379 -0.3052
 3095SOL     OW10725   3.101   0.243   9.774 -0.2598  0.0811 -0.2132
 3095SOL    HW110726   3.081   0.277   9.687 -0.3230 -0.2276 -0.3208
 3095SOL    HW210727   3.188   0.276   9.794 -0.7002  1.0994  0.0837
 3096SOL     OW10728   0.442   4.169  10.181  0.1260  0.6691 -0.6170
 3096SOL    HW110729   0.354   4.198  10.204  0.5405  1.1447  0.4454
 3096SOL    HW210730   0.485   4.248  10.148  0.9927  1.1203  1.4730
 3097SOL     OW10731   5.847   3.945   9.403 -0.5815 -0.3585  0.2985
 3097SOL    HW110732   5.766   3.951   9.453  0.3711 -1.9384  2.1379
 3097SOL    HW210733   5.904   3.888   9.455  1.8639  0.9785 -0.7478
 3098SOL     OW10734   3.131   5.723   1.984 -0.6118  0.6253  0.3326
 3098SOL    HW110735   3.048   5.763   1.957 -1.2078 -0.1104  1.0450
 3098SOL    HW210736   3.117   5.629   1.976  0.4697  0.5179 -0.4253
 3099SOL     OW10737   3.946   6.262   8.443  0.3751 -0.4561  0.1215
 3099SOL    HW110738   3.937   6.291   8.534  1.3934 -0.3471  0.2041
 3099SOL    HW210739   4.037   6.232   8.436  0.7765  0.8852 -1.2157
 3100SOL     OW10740   0.446   7.420   4.675  0.4762 -0.1005  0.5148
 3100SOL    HW110741   0.440   7.324   4.671  0.4419 -0.1057  0.6730
 3100SOL    HW210742   0.446   7.440   4.769  1.2118  0.0078  0.4919
 3101SOL     OW10743   1.043   7.794   5.701  0.0652 -0.5024 -0.4994
 3101SOL    HW110744   1.126   7.776   5.746 -0.2857 -0.7006  0.0800
 3101SOL    HW210745   1.002   7.708   5.692  0.0308 -0.4368 -1.0186
 3102SOL     OW10746   4.642   5.678  10.885 -0.6155  0.4139  0.2876
 3102SOL    HW110747   4.654   5.764  10.924 -0.2811  0.5180 -0.0332
 3102SOL    HW210748   4.547   5.669  10.873 -0.5599  1.4450 -1.2285
 3103SOL     OW10749   5.012   4.076  11.525  0.1203 -0.2509  0.6326
 3103SOL    HW110750   5.058   3.993  11.538 -0.6740 -0.8771 -0.4112
 3103SOL    HW210751   5.028   4.126  11.605  1.4373 -1.0101  0.8574
 3104SOL     OW10752   4.590   2.893   4.137  0.0524 -0.4684 -0.0390
 3104SOL    HW110753   4.668   2.901   4.192  0.7573  0.2756 -1.1024
 3104SOL    HW210754   4.619   2.922   4.050 -0.9100 -2.0026 -0.9128
 3105SOL     OW10755   3.987   6.772   3.434 -0.0856 -0.1578  0.2521
 3105SOL    HW110756   3.945   6.858   3.432  0.4802  0.1411  1.0465
 3105SOL    HW210757   4.030   6.765   3.349  0.9763  0.9099  0.6746
 3106SOL     OW10758   4.325   3.179  12.012  0.1784  0.3511  0.3378
 3106SOL    HW110759   4.396   3.236  12.042  0.0496  1.1279 -0.7745
 3106SOL    HW210760   4.276   3.233  11.950  0.2263 -1.0877 -0.9947
 3107SOL     OW10761   0.089   7.439   1.097  0.0391  0.1942 -0.6972
 3107SOL    HW110762   0.145   7.390   1.037 -0.0785 -0.7435 -0.0724
 3107SOL    HW210763   0.035   7.493   1.041  0.4756 -0.0759 -1.3918
 3108SOL     OW10764   4.054   1.716   9.512 -0.5198 -0.3927 -0.2738
 3108SOL    HW110765   4.140   1.750   9.489 -0.8949  0.9783  0.2880
 3108SOL    HW210766   4.073   1.639   9.567  0.3380  0.0063  0.0087
 3109SOL     OW10767   2.214   4.860  10.569  0.1200 -0.4185 -0.0012
 3109SOL    HW110768   2.274   4.900  10.506 -0.0776  1.3824  0.8697
 3109SOL    HW210769   2.271   4.825  10.637  0.2658 -0.5762 -0.2048
 3110SOL     OW10770   1.765   3.513   3.850 -0.4276 -0.2722  0.0737
 3110SOL    HW110771   1.849   3.532   3.892  0.4532 -0.3642 -1.5563
 3110SOL    HW210772   1.751   3.419   3.865  0.5041 -0.5815 -0.8353
 3111SOL     OW10773   7.577   7.476   0.051  0.2117  0.2640  0.0399
 3111SOL    HW110774   7.534   7.412   0.108 -0.6338  0.2139 -0.6224
 3111SOL    HW210775   7.671   7.463   0.066  0.0349 -0.7684  0.3163
 3112SOL     OW10776   5.659   4.321   2.764  0.3355  0.4790 -0.3734
 3112SOL    HW110777   5.583   4.374   2.740 -0.1042 -0.6892 -1.7679
 3112SOL    HW210778   5.648   4.303   2.857 -1.9838 -0.9245 -0.8349
 3113SOL     OW10779   4.780   1.416   9.408  0.3829  0.2572 -0.6640
 3113SOL    HW110780   4.817   1.502   9.391 -0.8568  0.6516 -1.5106
 3113SOL    HW210781   4.853   1.355   9.399  1.3631  1.2412  0.3617
 3114SOL     OW10782   3.563   6.637  11.621  0.9211  0.2470  0.6515
 3114SOL    HW110783   3.637   6.579  11.641  0.9721  0.2673  0.5200
 3114SOL    HW210784   3.599   6.702  11.561  0.6456 -0.0885  0.1202
 3115SOL     OW10785   6.443   3.334   1.403 -0.0209  0.8915  0.3023
 3115SOL    HW110786   6.374   3.400   1.407 -1.1410 -0.2730  0.9606
 3115SOL    HW210787   6.458   3.309   1.494  1.3714  1.1996  0.1804
 3116SOL     OW10788   3.072   1.635   4.287 -0.1619  0.3305  0.5820
 3116SOL    HW110789   3.088   1.726   4.312  0.1042  0.5728 -0.3920
 3116SOL    HW210790   3.041   1.592   4.367  1.2962  0.8850  1.4919
 3117SOL     OW10791   2.391   1.097   7.150  0.1577  0.2080  0.0346
 3117SOL    HW110792   2.319   1.094   7.214  0.2755  0.1704  0.1666
 3117SOL    HW210793   2.460   1.145   7.195 -0.1111  1.0495 -0.4269
 3118SOL     OW10794   2.225   1.781   3.118 -0.6539 -0.3528 -0.3747
 3118SOL    HW110795   2.133   1.762   3.103 -0.5802 -0.3614 -0.8202
 3118SOL    HW210796   2.270   1.750   3.039 -0.0166 -2.2616  0.6664
 3119SOL     OW10797   7.147   3.258  11.696 -0.3562  0.1973  0.9407
 3119SOL    HW110798   7.168   3.293  11.609  1.4136 -0.0351  1.2443
 3119SOL    HW210799   7.216   3.194  11.714 -2.0113 -1.5531  1.5271
 3120SOL     OW10800   2.698   2.034   3.608 -0.1724  0.1211 -0.5907
 3120SOL    HW110801   2.694   2.006   3.516  3.1769  0.0703 -0.8641
 3120SOL    HW210802   2.713   2.128   3.604 -2.1947  0.5019  0.0277
 3121SOL     OW10803   2.424   5.413   4.386 -0.4230  0.1755 -0.0895
 3121SOL    HW110804   2.364   5.427   4.313 -2.3204 -1.7872  1.0008
 3121SOL    HW210805   2.405   5.485   4.447 -3.1069 -1.3945  1.0784
 3122SOL     OW10806   3.958   1.491   7.897  0.0936  0.6666  0.1575
 3122SOL    HW110807   3.951   1.400   7.867 -1.1447  0.1141  1.9779
 3122SOL    HW210808   4.011   1.534   7.830 -0.3154 -1.1023 -1.3821
 3123SOL     OW10809   2.949   5.642   8.830  0.2710 -0.0611 -0.1411
 3123SOL    HW110810   2.965   5.714   8.768  1.4864 -0.7561 -0.6868
 3123SOL    HW210811   2.874   5.671   8.882 -0.0911  1.0246 -1.2136
 3124SOL     OW10812   1.486   0.469   6.444 -0.2504  0.2610  0.3192
 3124SOL    HW110813   1.518   0.428   6.364  0.2727  1.5466 -0.1577
 3124SOL    HW210814   1.391   0.473   6.432 -0.2974 -0.6474  0.3162
 3125SOL     OW10815   6.447   5.398   9.214  0.0671 -0.4396  0.1136
 3125SOL    HW110816   6.533   5.419   9.250  0.4248 -1.7180  0.0520
 3125SOL    HW210817   6.385   5.440   9.273  0.7313  1.5178 -0.5082
 3126SOL     OW10818   7.207   7.612  11.758 -0.3076  0.1105 -0.4412
 3126SOL    HW110819   7.254   7.561  11.692 -1.1954  0.6086 -1.4950
 3126SOL    HW210820   7.194   7.552  11.831 -2.1750 -1.5402 -2.0078
 3127SOL     OW10821   6.418   6.788   3.891  0.0839 -0.1051 -0.5690
 3127SOL    HW110822   6.395   6.727   3.961  0.0773 -0.2237 -0.6750
 3127SOL    HW210823   6.459   6.734   3.824 -0.1066 -0.0245 -0.7513
 3128SOL     OW10824   3.102   0.920   7.243  0.2479  0.1470 -0.3462
 3128SOL    HW110825   3.035   0.987   7.227  0.3012 -0.3712 -3.1397
 3128SOL    HW210826   3.054   0.838   7.246  0.7497 -0.3877 -3.6707
 3129SOL     OW10827   7.245   4.082   3.980 -0.1560 -0.2097  0.5334
 3129SOL    HW110828   7.171   4.028   4.009  0.6523 -1.7292 -0.0764
 3129SOL    HW210829   7.237   4.083   3.884  0.2352  0.1818  0.5035
 3130SOL     OW10830   3.706   7.064   0.145 -0.5295 -0.8951  0.0875
 3130SOL    HW110831   3.720   7.048   0.052 -0.8011  0.2332 -0.1634
 3130SOL    HW210832   3.611   7.076   0.153 -0.2641  1.6750  0.0260
 3131SOL     OW10833   3.076   4.036  11.095 -0.3280  0.0062  0.1290
 3131SOL    HW110834   3.051   4.072  11.180 -0.5027  0.1073  0.0337
 3131SOL    HW210835   2.999   4.048  11.040  0.5088  2.0383 -0.7085
 3132SOL     OW10836   0.456   7.239   8.413  0.5075 -0.1502 -0.7297
 3132SOL    HW110837   0.440   7.147   8.434  0.3647  0.1421  0.5319
 3132SOL    HW210838   0.495   7.238   8.326 -1.7425 -1.2492 -1.8051
 3133SOL     OW10839   7.267   2.552   3.955  0.6195 -0.1979 -0.1025
 3133SOL    HW110840   7.265   2.506   3.871 -0.1669 -0.4137  0.0292
 3133SOL    HW210841   7.357   2.586   3.961  0.7642 -0.4093 -0.8997
 3134SOL     OW10842   1.063   5.647   1.447  0.0219  0.3002  0.1504
 3134SOL    HW110843   1.089   5.645   1.355 -2.3230 -1.9398 -0.5785
 3134SOL    HW210844   0.967   5.650   1.445 -0.0747  2.2472  2.5879
 3135SOL     OW10845   2.193   3.490  10.766  0.4967  0.0521 -0.3060
 3135SOL    HW110846   2.147   3.481  10.682  0.3098  0.1506 -0.2126
 3135SOL    HW210847   2.252   3.564  10.753  0.2791  0.2336 -0.2642
 3136SOL     OW10848   6.045   0.617   8.670 -0.9289  0.0632  0.3483
 3136SOL    HW110849   6.086   0.699   8.698  0.0111 -0.2103 -0.1607
 3136SOL    HW210850   6.001   0.584   8.748  0.0295  0.2658  0.9935
 3137SOL     OW10851   4.005   6.893   1.670  0.2669  0.4082 -0.2228
 3137SOL    HW110852   3.972   6.808   1.642 -1.0678  0.7978  0.0999
 3137SOL    HW210853   3.959   6.956   1.615  0.3893  0.9752  0.3083
 3138SOL     OW10854   7.133   2.022   0.727  0.2892  0.1660  0.0615
 3138SOL    HW110855   7.039   2.011   0.736  0.4319 -0.7738  0.4400
 3138SOL    HW210856   7.143   2.092   0.661 -0.6586  0.3282  0.0856
 3139SOL     OW10857   4.535   3.355  11.058 -0.4231  0.2300 -0.2936
 3139SOL    HW110858   4.463   3.293  11.058 -0.9877  0.8639 -0.9958
 3139SOL    HW210859   4.591   3.328  10.985  0.2578 -0.4783  0.4737
 3140SOL     OW10860   1.938   5.699   6.280 -0.3666  0.2933  0.3499
 3140SOL    HW110861   1.858   5.656   6.308 -0.6916 -0.4060 -1.5080
 3140SOL    HW210862   1.928   5.710   6.186  1.2644  1.1739  0.2369
 3141SOL     OW10863   1.786   5.639   5.992 -0.8786 -0.5466  0.1706
 3141SOL    HW110864   1.872   5.678   5.976 -0.6377 -0.8998  0.5874
 3141SOL    HW210865   1.803   5.545   5.998 -0.7346 -0.4423  3.4938
 3142SOL     OW10866   4.191   7.405   1.449  0.2719 -0.2529 -0.0887
 3142SOL    HW110867   4.183   7.311   1.439 -0.7967 -0.1079 -0.7562
 3142SOL    HW210868   4.101   7.437   1.451  0.6156  0.9054 -1.4166
 3143SOL     OW10869   6.146   6.469   5.553 -0.5924 -0.5256  0.0089
 3143SOL    HW110870   6.099   6.445   5.473  0.0035  0.1561 -0.5600
 3143SOL    HW210871   6.219   6.407   5.557 -0.6608 -0.6026  0.0596
 3144SOL     OW10872   7.644   0.420  11.771 -0.3871  0.1365 -0.1737
 3144SOL    HW110873   7.626   0.348  11.831 -1.3129  0.9307  0.5307
 3144SOL    HW210874   7.728   0.456  11.800 -0.2572 -0.2215 -0.0985
 3145SOL     OW10875   4.629   2.578   5.605  0.0379  0.0890 -0.3810
 3145SOL    HW110876   4.583   2.513   5.658 -0.4670 -0.5083 -1.5209
 3145SOL    HW210877   4.583   2.660   5.621 -0.1190 -0.0915  0.0894
 3146SOL     OW10878   5.105   6.723   7.652 -0.2156  0.1469 -0.1027
 3146SOL    HW110879   5.145   6.639   7.676 -0.7549  0.3494  1.6037
 3146SOL    HW210880   5.034   6.735   7.715  0.3318  2.2474  0.1929
 3147SOL     OW10881   7.302   6.930   5.096 -0.3145  0.0574 -0.4248
 3147SOL    HW110882   7.388   6.902   5.129  0.3956  0.7128 -1.6449
 3147SOL    HW210883   7.273   6.996   5.159  0.1142 -0.1099 -0.0414
 3148SOL     OW10884   2.748   2.775  10.146  0.1449 -0.3120  0.2952
 3148SOL    HW110885   2.659   2.739  10.148 -0.1269  0.3556  0.3223
 3148SOL    HW210886   2.740   2.861  10.187  1.3668 -1.4571  3.1932
 3149SOL     OW10887   1.046   4.625   4.098  1.0097  0.4359 -0.4927
 3149SOL    HW110888   1.052   4.557   4.032 -0.4250  0.0220 -0.2328
 3149SOL    HW210889   1.072   4.705   4.052 -0.4587  0.2443 -1.7269
 3150SOL     OW10890   2.424   7.169   3.500  0.1690 -0.1197 -0.0982
 3150SOL    HW110891   2.388   7.081   3.491 -1.1444  0.4048 -0.1252
 3150SOL    HW210892   2.518   7.159   3.481 -0.0468 -1.4277 -0.5330
 3151SOL     OW10893   4.175   4.395  11.832 -0.0051 -0.0945 -0.2356
 3151SOL    HW110894   4.247   4.333  11.833  1.1127  1.1361 -0.6570
 3151SOL    HW210895   4.178   4.437  11.918 -1.5262 -1.4231  0.5118
 3152SOL     OW10896   6.242   7.674   2.243 -0.0640  0.0930 -0.0723
 3152SOL    HW110897   6.316   7.729   2.269  0.8274 -1.9496  2.1427
 3152SOL    HW210898   6.269   7.637   2.158  2.5315 -2.1191  1.5255
 3153SOL     OW10899   4.448   0.815   9.333  0.4325 -0.2911  0.1715
 3153SOL    HW110900   4.371   0.758   9.340  0.3417 -0.6002 -2.3220
 3153SOL    HW210901   4.520   0.760   9.363 -0.1172 -0.4405  1.2891
 3154SOL     OW10902   2.295   3.858   5.694  0.1023  0.2055 -0.3142
 3154SOL    HW110903   2.289   3.903   5.778 -0.8986  0.8291 -0.7035
 3154SOL    HW210904   2.378   3.811   5.698  0.6571  1.2116  0.5356
 3155SOL     OW10905   7.726   4.737   9.190 -0.4705 -0.4672 -0.2661
 3155SOL    HW110906   7.713   4.643   9.199 -0.9487 -0.4264 -0.4978
 3155SOL    HW210907   7.806   4.755   9.239 -0.5600 -0.9415  0.0617
 3156SOL     OW10908   4.787   2.524   3.310 -0.0572 -0.6346  0.6181
 3156SOL    HW110909   4.839   2.447   3.332 -1.3213 -1.1465  2.0038
 3156SOL    HW210910   4.746   2.503   3.226  2.1607 -0.0636 -0.7133
 3157SOL     OW10911   5.935   5.820   3.707 -0.0222 -0.1071  0.1234
 3157SOL    HW110912   6.019   5.837   3.750 -0.3916 -0.5643  1.0664
 3157SOL    HW210913   5.945   5.735   3.666 -0.7806 -1.3539  2.3467
 3158SOL     OW10914   3.026   6.013   8.425  0.0596 -0.2420 -0.1553
 3158SOL    HW110915   3.017   6.104   8.396  0.9127 -0.0523  0.1306
 3158SOL    HW210916   3.012   5.961   8.346 -2.5509  0.0033  0.0621
 3159SOL     OW10917   2.092   2.641  11.742  1.3846 -0.0805  0.0647
 3159SOL    HW110918   2.166   2.629  11.682  1.9778  0.6048  0.6428
 3159SOL    HW210919   2.055   2.726  11.718  0.1956 -0.8082 -0.8193
 3160SOL     OW10920   6.486   6.804   9.612  0.0555  0.2621 -0.1104
 3160SOL    HW110921   6.557   6.850   9.657  0.7653 -0.7636 -0.1658
 3160SOL    HW210922   6.447   6.748   9.680  0.3133 -0.3463 -0.4582
 3161SOL     OW10923   7.721   1.314   7.166 -0.0149  0.0674  0.0277
 3161SOL    HW110924   7.726   1.246   7.100 -1.4265 -0.3370  0.2969
 3161SOL    HW210925   7.793   1.295   7.227 -0.1992 -0.9872 -0.0786
 3162SOL     OW10926   0.290   6.316   5.503 -0.0382  0.0925 -0.4447
 3162SOL    HW110927   0.326   6.389   5.554  0.9385 -0.2490 -0.6239
 3162SOL    HW210928   0.223   6.355   5.447  0.6078  0.8831 -0.6744
 3163SOL     OW10929   6.134   2.527   3.676 -0.1624 -0.6384  0.2829
 3163SOL    HW110930   6.187   2.451   3.701  0.5734 -0.2240  0.0328
 3163SOL    HW210931   6.079   2.496   3.605  1.5047 -0.4644 -1.1508
 3164SOL     OW10932   1.037   2.250   8.459  0.2389  0.3985 -0.2094
 3164SOL    HW110933   1.090   2.185   8.505 -1.2159 -0.1839  0.7414
 3164SOL    HW210934   0.946   2.223   8.477 -0.4219  2.7921  0.4349
 3165SOL     OW10935   4.015   2.893  11.184 -0.3524 -0.0516 -0.0230
 3165SOL    HW110936   4.039   2.942  11.105 -2.1276 -0.3090 -0.7672
 3165SOL    HW210937   3.920   2.881  11.177 -0.3259 -1.4066  1.4074
 3166SOL     OW10938   0.789   0.123  11.732  0.2759  0.5744 -0.3976
 3166SOL    HW110939   0.709   0.172  11.713  0.3409  0.9793  0.3252
 3166SOL    HW210940   0.766   0.031  11.717 -0.2223  0.7207 -0.5291
 3167SOL     OW10941   1.090   6.424   2.831 -0.3857  0.3121 -0.4633
 3167SOL    HW110942   1.154   6.492   2.850  0.7722 -0.6498 -0.8280
 3167SOL    HW210943   1.038   6.459   2.758  0.1359  0.8381 -0.5857
 3168SOL     OW10944   4.161   2.729  11.619 -0.0696  0.0077  0.6192
 3168SOL    HW110945   4.102   2.654  11.622 -0.0203 -0.0372  0.4943
 3168SOL    HW210946   4.174   2.746  11.525  0.4301 -0.2320  0.6398
 3169SOL     OW10947   6.276   6.022  10.494 -0.3682 -0.5025  0.3427
 3169SOL    HW110948   6.306   5.931  10.492 -1.6300 -0.9731  1.3635
 3169SOL    HW210949   6.332   6.064  10.559  0.6702 -0.3436 -0.6154
 3170SOL     OW10950   2.293   5.138   9.518 -0.1003  0.7653 -0.6046
 3170SOL    HW110951   2.295   5.120   9.424  0.0500 -0.0772 -0.4501
 3170SOL    HW210952   2.360   5.205   9.531  0.9254 -0.1759 -0.8951
 3171SOL     OW10953   3.137   2.629  10.320 -0.2478  0.2411 -0.1602
 3171SOL    HW110954   3.188   2.667  10.392  0.6297 -0.1804 -0.5428
 3171SOL    HW210955   3.183   2.657  10.241 -0.1084 -0.8538 -0.4834
 3172SOL     OW10956   7.524   4.341   1.806  0.3978  0.0729  0.1040
 3172SOL    HW110957   7.515   4.257   1.761 -0.7423 -0.2025  0.8066
 3172SOL    HW210958   7.460   4.398   1.762  1.1259  0.5645 -0.3330
 3173SOL     OW10959   7.910   1.148   1.172  0.0851  0.1808 -0.1759
 3173SOL    HW110960   7.832   1.170   1.223 -1.2483 -0.7648 -1.7139
 3173SOL    HW210961   7.901   1.055   1.154  0.1052  0.5903 -2.6870
 3174SOL     OW10962   0.630   1.667   2.026 -0.5463 -0.8701 -0.2316
 3174SOL    HW110963   0.675   1.585   2.004  0.9970 -0.3362  0.7283
 3174SOL    HW210964   0.662   1.689   2.114  1.1432  2.0880 -1.4520
 3175SOL     OW10965   1.128   1.823   6.722  0.5847 -0.1077  0.4446
 3175SOL    HW110966   1.210   1.832   6.675 -0.1197  1.3056 -0.5700
 3175SOL    HW210967   1.142   1.869   6.805  1.1875 -0.9148  0.8009
 3176SOL     OW10968   5.399   2.696  11.922  0.0227  0.8102 -0.4423
 3176SOL    HW110969   5.404   2.740  11.837  1.0669  0.7481 -0.4158
 3176SOL    HW210970   5.318   2.645  11.917 -0.4397  1.5599 -1.0293
 3177SOL     OW10971   1.269   7.820   6.360  0.1510  0.4484 -0.1326
 3177SOL    HW110972   1.313   7.849   6.280 -1.8867  0.2181 -1.3937
 3177SOL    HW210973   1.232   7.900   6.397 -0.6828  0.2834 -0.5793
 3178SOL     OW10974   5.657   6.710   7.914  0.3211  0.2324  0.3916
 3178SOL    HW110975   5.638   6.622   7.884  1.5066  0.8369 -2.4350
 3178SOL    HW210976   5.711   6.698   7.992 -0.2420 -1.5021  0.5520
 3179SOL     OW10977   2.856   4.855   6.221 -0.2786  0.1359 -0.1348
 3179SOL    HW110978   2.859   4.793   6.295  2.5216  1.2633  0.8624
 3179SOL    HW210979   2.775   4.904   6.234 -0.6153 -0.7314  1.3285
 3180SOL     OW10980   6.875   1.118   6.693  0.2208  0.4621 -0.1673
 3180SOL    HW110981   6.889   1.131   6.787  0.1739  0.8300 -0.2081
 3180SOL    HW210982   6.961   1.129   6.653  0.2470  0.2718 -0.1642
 3181SOL     OW10983   4.846   2.144   4.314  0.1018  0.1074 -0.1456
 3181SOL    HW110984   4.875   2.204   4.382 -1.0966 -0.3229  0.7823
 3181SOL    HW210985   4.900   2.065   4.326  1.4277  0.8111 -1.1423
 3182SOL     OW10986   7.356   5.179   0.777  0.5875 -0.0583  0.1026
 3182SOL    HW110987   7.440   5.218   0.804  0.8781  0.4866 -1.5107
 3182SOL    HW210988   7.290   5.236   0.816  0.9797  0.4265  0.0718
 3183SOL     OW10989   0.126   7.203   6.993 -0.2533 -0.1561 -0.4691
 3183SOL    HW110990   0.132   7.248   6.909  1.5729  0.0737 -0.2504
 3183SOL    HW210991   0.186   7.250   7.051 -1.6627 -0.1462  1.0706
 3184SOL     OW10992   2.419   6.405   7.974 -0.8868  0.3915  0.1344
 3184SOL    HW110993   2.388   6.493   7.952 -0.7751  0.1368 -1.1127
 3184SOL    HW210994   2.363   6.346   7.923 -0.2061 -0.1963  0.0450
 3185SOL     OW10995   0.261   3.331   8.494 -0.6304 -0.0304  0.3817
 3185SOL    HW110996   0.225   3.382   8.566  1.0143 -2.3743  3.0963
 3185SOL    HW210997   0.354   3.322   8.515 -0.5133 -2.5898 -0.8519
 3186SOL     OW10998   5.710   5.550   6.562  0.1187  0.3893 -0.5602
 3186SOL    HW110999   5.802   5.526   6.566  0.3037  0.9760 -1.1329
 3186SOL    HW211000   5.691   5.587   6.648  0.0760 -0.8922  0.0010
 3187SOL     OW11001   4.528   7.564   4.579 -0.0907 -0.7935  0.1452
 3187SOL    HW111002   4.447   7.517   4.556 -1.8570  2.3554 -0.7066
 3187SOL    HW211003   4.575   7.572   4.495  0.3107 -1.1647  0.3295
 3188SOL     OW11004   6.278   4.563   4.906 -0.0129 -0.3419  0.3740
 3188SOL    HW111005   6.336   4.555   4.982  0.5676 -0.5972 -0.0817
 3188SOL    HW211006   6.287   4.479   4.861  0.7744  0.3193 -0.7462
 3189SOL     OW11007   6.885   6.531   6.281  0.2517 -0.1082 -0.4014
 3189SOL    HW111008   6.885   6.481   6.363 -0.1189  0.0687 -0.2909
 3189SOL    HW211009   6.803   6.507   6.238 -0.7157  1.5686  0.3843
 3190SOL     OW11010   1.562   0.884   8.014  0.3421  0.4156  0.2316
 3190SOL    HW111011   1.497   0.885   7.943 -0.0398  0.6927  0.5765
 3190SOL    HW211012   1.625   0.952   7.991  0.8120 -0.2113 -0.3756
 3191SOL     OW11013   3.910   0.081   9.865  0.3033  0.3172  0.1185
 3191SOL    HW111014   3.818   0.102   9.854  0.1692  0.7568  1.7687
 3191SOL    HW211015   3.957   0.144   9.811 -0.3362  0.6771 -0.0182
 3192SOL     OW11016   2.832   7.289   3.120 -0.0520  0.3848  0.3944
 3192SOL    HW111017   2.805   7.294   3.028  0.2364  0.3604  0.3052
 3192SOL    HW211018   2.928   7.288   3.116  0.1584 -4.8265  0.3712
 3193SOL     OW11019   4.406   0.243   5.675  0.6382  0.1166  0.5670
 3193SOL    HW111020   4.357   0.319   5.642 -0.3572 -1.2136 -1.1586
 3193SOL    HW211021   4.498   0.266   5.660  0.3877  1.1739  0.5321
 3194SOL     OW11022   6.289   2.784   4.378  0.0006  0.0697 -0.1187
 3194SOL    HW111023   6.212   2.760   4.430  0.6099 -0.1163  0.7089
 3194SOL    HW211024   6.360   2.792   4.441  0.5479  0.8087 -0.8002
 3195SOL     OW11025   1.979   3.242   2.575  0.0829  0.2592 -0.1310
 3195SOL    HW111026   1.934   3.326   2.572 -1.0133 -0.2931  0.0288
 3195SOL    HW211027   1.915   3.180   2.541  0.8652 -0.5164 -0.2236
 3196SOL     OW11028   3.984   5.075   7.673 -0.5369 -0.6242 -0.1849
 3196SOL    HW111029   4.046   5.136   7.712  0.4908 -1.6451 -0.1655
 3196SOL    HW211030   3.908   5.129   7.650  0.9875  0.9889 -1.7429
 3197SOL     OW11031   7.477   4.803   6.558  0.0813  0.3378  0.2358
 3197SOL    HW111032   7.527   4.722   6.550  0.0713  0.4841 -1.7815
 3197SOL    HW211033   7.396   4.787   6.510 -0.7086  0.9745  1.2972
 3198SOL     OW11034   1.445   4.226   3.000 -0.4845 -0.4418 -0.1131
 3198SOL    HW111035   1.488   4.243   2.915 -1.5616 -2.0073 -1.0095
 3198SOL    HW211036   1.469   4.136   3.021 -2.4742 -1.0200 -0.1457
 3199SOL     OW11037   2.531   3.653   9.282  0.3365 -0.4430  0.5323
 3199SOL    HW111038   2.529   3.723   9.348 -1.2984 -0.6176  0.6995
 3199SOL    HW211039   2.523   3.572   9.332  0.0501 -0.6299  0.1880
 3200SOL     OW11040   7.601   7.570  12.205 -0.0547 -0.1753 -0.4867
 3200SOL    HW111041   7.582   7.529  12.289 -0.5640  0.3624 -0.3324
 3200SOL    HW211042   7.671   7.517  12.167  0.5090 -0.1515  0.4819
 3201SOL     OW11043   6.062   7.842   9.799  0.2069 -0.1376 -0.3486
 3201SOL    HW111044   6.017   7.913   9.753  1.6828  1.5281  0.6460
 3201SOL    HW211045   6.104   7.884   9.873 -0.1254 -2.3476  1.2023
 3202SOL     OW11046   4.242   0.427   0.838 -0.2973  0.1158  0.0506
 3202SOL    HW111047   4.309   0.362   0.859 -1.1413 -0.6736  0.3648
 3202SOL    HW211048   4.219   0.465   0.923 -1.4682 -0.8512  0.1938
 3203SOL     OW11049   1.047   1.771  11.789  0.5182  0.7630  0.1300
 3203SOL    HW111050   0.954   1.794  11.786  0.2773 -0.2757 -1.2564
 3203SOL    HW211051   1.056   1.718  11.867 -0.4870 -0.7848 -0.7609
 3204SOL     OW11052   3.678   6.228   1.477  0.2348 -0.3464  0.1873
 3204SOL    HW111053   3.705   6.254   1.565  1.8167 -0.3430 -0.2658
 3204SOL    HW211054   3.712   6.298   1.421  1.2733 -1.5002 -0.6567
 3205SOL     OW11055   7.439   0.658   8.745 -0.3342 -0.2453 -1.0206
 3205SOL    HW111056   7.356   0.615   8.725 -0.5725  0.4120 -1.4882
 3205SOL    HW211057   7.446   0.728   8.680  0.2753  0.1156 -0.5757
 3206SOL     OW11058   7.754   6.584   5.163  0.0049 -0.0571  0.2792
 3206SOL    HW111059   7.784   6.606   5.252 -0.3998  0.1234  0.3735
 3206SOL    HW211060   7.659   6.578   5.171  0.0252 -0.7974  0.0162
 3207SOL     OW11061   0.492   0.699  11.606  0.1190 -0.4215 -0.2134
 3207SOL    HW111062   0.531   0.617  11.576  0.9771 -0.0701 -0.0875
 3207SOL    HW211063   0.550   0.729  11.676 -0.0493  0.4134 -0.4200
 3208SOL     OW11064   5.556   0.777  10.279  0.0759  0.1894 -0.1189
 3208SOL    HW111065   5.572   0.839  10.350 -0.6245 -0.3263  0.5034
 3208SOL    HW211066   5.484   0.723  10.310  2.0996 -2.4407  0.3483
 3209SOL     OW11067   1.478   2.188  11.944  0.0890  0.0003 -0.9617
 3209SOL    HW111068   1.456   2.096  11.929 -0.2453 -0.6604  2.8105
 3209SOL    HW211069   1.393   2.232  11.957  0.3523  0.1528  0.3830
 3210SOL     OW11070   7.887   4.364   0.904 -0.0521  0.1549  0.0269
 3210SOL    HW111071   7.936   4.406   0.974 -0.3185  1.6323 -0.6463
 3210SOL    HW211072   7.889   4.271   0.927  1.5703  0.3620  0.9249
 3211SOL     OW11073   4.477   6.929   7.141 -0.0001 -0.2729 -0.0304
 3211SOL    HW111074   4.428   6.881   7.074 -1.9282 -0.3355  1.3266
 3211SOL    HW211075   4.463   6.879   7.222  1.7542  0.1210  0.5700
 3212SOL     OW11076   4.530   7.531  10.637 -0.2173  0.1595 -0.0479
 3212SOL    HW111077   4.583   7.456  10.607 -0.0506  0.1706  0.2185
 3212SOL    HW211078   4.477   7.495  10.708  0.2068  0.4100  0.3967
 3213SOL     OW11079   5.419   4.993   4.616  0.4057 -0.3779  0.3221
 3213SOL    HW111080   5.477   4.924   4.648  0.6219  0.1887  1.1947
 3213SOL    HW211081   5.473   5.042   4.553  0.6408 -0.2952  0.5856
 3214SOL     OW11082   2.320   6.711   3.770 -0.4348  0.3499 -0.1803
 3214SOL    HW111083   2.326   6.767   3.847  1.3485 -1.6556  1.2555
 3214SOL    HW211084   2.249   6.650   3.790 -1.9982  1.6702 -1.4932
 3215SOL     OW11085   3.231   3.612  11.883  0.5463 -0.0280 -0.1807
 3215SOL    HW111086   3.184   3.641  11.805  1.2271  1.8431  0.0585
 3215SOL    HW211087   3.169   3.623  11.955  0.5336  0.0184 -0.1992
 3216SOL     OW11088   5.491   5.855   2.475  0.5090  0.6268  0.6295
 3216SOL    HW111089   5.401   5.822   2.470  0.8598 -0.3612  0.6680
 3216SOL    HW211090   5.545   5.784   2.442  1.2878  1.2060  0.6211
 3217SOL     OW11091   2.410   6.917   4.711 -0.4485 -0.0942  0.0481
 3217SOL    HW111092   2.410   6.921   4.807 -0.2729 -2.8161  0.2612
 3217SOL    HW211093   2.500   6.937   4.687 -0.0942 -0.9387  0.6073
 3218SOL     OW11094   2.905   1.532  10.749 -0.1086 -0.5931 -0.0402
 3218SOL    HW111095   2.859   1.519  10.832  0.3275  1.8726  0.6727
 3218SOL    HW211096   2.836   1.548  10.685 -0.3831  0.4557  0.4903
 3219SOL     OW11097   7.869   6.779   5.721  0.3365  0.0023  0.3229
 3219SOL    HW111098   7.945   6.722   5.728  0.8590  0.4600 -1.2493
 3219SOL    HW211099   7.904   6.868   5.732 -0.1801  0.1407  0.9020
 3220SOL     OW11100   4.450   4.751   4.455  0.0792 -1.0120  0.1025
 3220SOL    HW111101   4.399   4.712   4.384  0.4268 -0.0331 -0.7057
 3220SOL    HW211102   4.456   4.681   4.521  1.3183 -2.6321 -1.5990
 3221SOL     OW11103   2.648   3.682  11.033 -0.4975 -0.7373 -0.0343
 3221SOL    HW111104   2.635   3.706  11.125 -0.7023  0.4457 -0.3501
 3221SOL    HW211105   2.668   3.765  10.989  3.2037 -1.6974 -0.4821
 3222SOL     OW11106   7.369   5.024  12.176  0.2875 -0.4638 -0.3457
 3222SOL    HW111107   7.290   4.971  12.180  1.4052 -2.2656 -0.9702
 3222SOL    HW211108   7.360   5.086  12.249 -1.1575 -1.3637  0.2807
 3223SOL     OW11109   5.393   4.231  10.150 -0.3833  0.4639 -0.1711
 3223SOL    HW111110   5.415   4.323  10.140  0.1247  0.2705 -0.8822
 3223SOL    HW211111   5.346   4.227  10.233 -0.2895  1.3381 -0.0638
 3224SOL     OW11112   6.272   0.242  10.347 -0.4301  0.0461  0.2642
 3224SOL    HW111113   6.241   0.231  10.437  0.0534 -0.5163  0.3640
 3224SOL    HW211114   6.262   0.156  10.308 -0.1133  0.1573 -0.0600
 3225SOL     OW11115   3.068   4.286   3.592 -0.5145  0.0817 -0.5324
 3225SOL    HW111116   3.148   4.290   3.644  0.6837 -1.9223 -2.0677
 3225SOL    HW211117   3.032   4.199   3.612 -1.6346  0.4594 -0.8375
 3226SOL     OW11118   0.524   2.814   1.317 -0.1898 -0.4077  0.2067
 3226SOL    HW111119   0.536   2.751   1.246 -1.8277  1.0488 -1.4475
 3226SOL    HW211120   0.429   2.814   1.333  0.0719 -0.2655  2.0209
 3227SOL     OW11121   6.763   1.780   1.579 -0.0268 -0.0543  0.0935
 3227SOL    HW111122   6.741   1.860   1.531 -0.8539 -0.0381  0.4749
 3227SOL    HW211123   6.788   1.717   1.512 -0.4275  0.1983 -0.2952
 3228SOL     OW11124   2.943   7.658   9.956  0.2252 -0.4000 -0.2921
 3228SOL    HW111125   2.954   7.753   9.963 -1.5030 -0.1199 -0.8777
 3228SOL    HW211126   2.994   7.623  10.029  0.3291  1.0241  0.3659
 3229SOL     OW11127   1.996   6.416  11.122  0.5544  0.0124  0.2170
 3229SOL    HW111128   2.042   6.496  11.098  1.0015  0.1015  1.3181
 3229SOL    HW211129   2.063   6.347  11.115  0.3843 -0.1427  0.0840
 3230SOL     OW11130   0.690   5.642   5.906  0.3201  0.5474  0.1581
 3230SOL    HW111131   0.657   5.596   5.829  0.6974  0.3577  0.1096
 3230SOL    HW211132   0.693   5.575   5.975 -1.9439  1.1359  0.9282
 3231SOL     OW11133   3.447   4.290   2.325 -0.1728 -0.0932  0.3338
 3231SOL    HW111134   3.539   4.291   2.297  0.1178  0.6593  1.2560
 3231SOL    HW211135   3.401   4.245   2.254  1.1081 -1.7633  0.4988
 3232SOL     OW11136   2.706   3.178   6.745 -0.4679  0.1233 -0.0078
 3232SOL    HW111137   2.777   3.235   6.775  0.7995 -1.5911  0.4048
 3232SOL    HW211138   2.646   3.173   6.820  1.0520 -1.5610  1.2049
 3233SOL     OW11139   6.280   4.893   2.975 -0.4630 -0.7474  0.6605
 3233SOL    HW111140   6.338   4.917   2.903  0.0401 -1.5476  0.7877
 3233SOL    HW211141   6.195   4.931   2.952  0.5068  2.1145  1.3942
 3234SOL     OW11142   1.757   1.609   6.942 -0.4337  0.2372 -0.1888
 3234SOL    HW111143   1.806   1.579   7.018 -0.4029 -0.3137 -0.4199
 3234SOL    HW211144   1.815   1.671   6.898 -0.7485  1.1388  0.6472
 3235SOL     OW11145   6.506   4.558  11.878 -0.2174 -0.5252 -0.0863
 3235SOL    HW111146   6.586   4.526  11.920  0.5750  2.0932  0.6050
 3235SOL    HW211147   6.446   4.575  11.950 -1.6276 -2.7661 -0.6221
 3236SOL     OW11148   6.398   6.362   1.507  0.4622  0.5911 -0.3903
 3236SOL    HW111149   6.349   6.321   1.436 -0.9368  0.5682  0.5387
 3236SOL    HW211150   6.468   6.411   1.464 -0.5252  0.8063 -1.7910
 3237SOL     OW11151   7.412   2.738  11.021 -0.2018  0.1934 -0.2147
 3237SOL    HW111152   7.408   2.779  11.108  0.0541  0.4112 -0.3035
 3237SOL    HW211153   7.494   2.770  10.984 -0.5339  0.4745 -0.7221
 3238SOL     OW11154   1.936   2.816   4.011  0.3218 -0.6968 -0.7853
 3238SOL    HW111155   2.023   2.783   4.033 -0.7846 -2.1384  1.7840
 3238SOL    HW211156   1.876   2.744   4.032 -1.6558  0.8293 -0.8388
 3239SOL     OW11157   2.165   3.153   1.638  0.2906  0.1114 -0.7438
 3239SOL    HW111158   2.072   3.146   1.661  0.5173  0.0958  0.1997
 3239SOL    HW211159   2.165   3.202   1.556 -0.7058 -2.0177 -2.1316
 3240SOL     OW11160   5.838   2.438   7.564 -0.0755 -0.5239  0.2135
 3240SOL    HW111161   5.920   2.393   7.588 -0.0831 -0.2988  0.6680
 3240SOL    HW211162   5.785   2.435   7.643 -0.3345 -0.2797  0.0506
 3241SOL     OW11163   4.749   3.548   1.740 -0.1029  0.3459  0.0760
 3241SOL    HW111164   4.761   3.546   1.835 -1.4006 -2.7706  0.2710
 3241SOL    HW211165   4.829   3.508   1.705 -0.6827 -0.8146  0.0442
 3242SOL     OW11166   5.148   4.141   5.815  0.6107 -0.0176 -0.1791
 3242SOL    HW111167   5.124   4.115   5.903  1.3167  0.6702  0.2328
 3242SOL    HW211168   5.103   4.224   5.801  2.0607  0.8790  0.3044
 3243SOL     OW11169   1.423   2.660   7.654  0.2057  0.2377 -0.4025
 3243SOL    HW111170   1.461   2.672   7.742 -1.1546 -1.1690  0.4293
 3243SOL    HW211171   1.393   2.569   7.654 -0.7695  0.5407 -1.9614
 3244SOL     OW11172   4.290   2.353  11.450 -0.2804 -0.1570 -0.3535
 3244SOL    HW111173   4.291   2.437  11.405 -1.0267  0.9619  1.6302
 3244SOL    HW211174   4.355   2.300  11.403  1.9760  2.2751 -0.1766
 3245SOL     OW11175   6.731   6.690   5.939  0.0681  0.2712 -0.0390
 3245SOL    HW111176   6.760   6.606   5.975  0.4787  0.4111 -0.0365
 3245SOL    HW211177   6.635   6.687   5.945  0.1383  0.6512  1.8790
 3246SOL     OW11178   7.142   0.546   1.091  0.2703  0.3481 -0.3597
 3246SOL    HW111179   7.182   0.522   1.008 -0.5418  1.8322 -1.2158
 3246SOL    HW211180   7.208   0.598   1.136  0.4201  0.2014 -0.4093
 3247SOL     OW11181   5.219   7.195  11.573 -0.1396 -0.4487  0.3224
 3247SOL    HW111182   5.146   7.174  11.631 -3.2700  0.6243 -2.8485
 3247SOL    HW211183   5.240   7.113  11.530 -2.5370 -0.1302 -1.7294
 3248SOL     OW11184   3.125   6.357   4.176 -0.1990 -0.2180 -0.2436
 3248SOL    HW111185   3.172   6.360   4.093 -0.2797  1.6413 -0.2795
 3248SOL    HW211186   3.190   6.382   4.241 -0.8175  1.3091 -0.1594
 3249SOL     OW11187   5.160   6.346   7.083  0.4516  0.2025  0.6648
 3249SOL    HW111188   5.069   6.325   7.061  0.8528 -0.8676  0.0031
 3249SOL    HW211189   5.194   6.391   7.006  1.2088 -1.6164 -0.1090
 3250SOL     OW11190   3.128   6.495   6.209  0.7383 -0.0872  0.9510
 3250SOL    HW111191   3.192   6.501   6.138  1.0742 -1.3235  1.1297
 3250SOL    HW211192   3.063   6.562   6.189  1.1401 -0.0341 -0.2122
 3251SOL     OW11193   4.517   5.696   0.027 -0.0082 -0.5272  0.2855
 3251SOL    HW111194   4.586   5.743  -0.020 -1.5016  1.6796  0.1426
 3251SOL    HW211195   4.509   5.741   0.110 -1.0619 -0.9380  0.4268
 3252SOL     OW11196   3.800   6.892   8.100 -0.3958  0.4391  0.4928
 3252SOL    HW111197   3.777   6.807   8.063 -2.6348  0.8238  0.8295
 3252SOL    HW211198   3.894   6.887   8.119  0.0274 -1.0736 -1.7182
 3253SOL     OW11199   1.211   1.561   4.928  0.1631 -0.0946  0.0361
 3253SOL    HW111200   1.241   1.492   4.869  0.0194  0.2774 -0.4877
 3253SOL    HW211201   1.139   1.522   4.977 -0.5593 -0.0417 -0.9386
 3254SOL     OW11202   7.058   7.298   4.024 -0.4178  0.0271  0.3238
 3254SOL    HW111203   6.992   7.294   4.093 -0.6157 -3.1364  0.1224
 3254SOL    HW211204   7.008   7.312   3.944 -0.2434  3.0539  0.6358
 3255SOL     OW11205   4.717   0.305   1.051  0.1360  0.3502 -0.6500
 3255SOL    HW111206   4.628   0.274   1.036  0.2776 -0.9658  0.9100
 3255SOL    HW211207   4.706   0.390   1.094 -0.3929  0.0230 -0.1237
 3256SOL     OW11208   1.519   2.096   6.264  0.1312 -0.2558  0.2897
 3256SOL    HW111209   1.449   2.057   6.211  1.8259 -1.4806 -1.1645
 3256SOL    HW211210   1.485   2.182   6.289 -1.8713 -0.7957 -0.3559
 3257SOL     OW11211   3.484   6.614   0.532 -0.5408 -0.4320  0.2313
 3257SOL    HW111212   3.482   6.686   0.469  0.3320  0.3487  1.0551
 3257SOL    HW211213   3.414   6.555   0.504 -0.5202  0.1568 -1.1427
 3258SOL     OW11214   1.435   5.433   7.255  0.0366 -0.2568  0.0636
 3258SOL    HW111215   1.460   5.444   7.163  0.9321 -1.2418  0.1650
 3258SOL    HW211216   1.471   5.510   7.298  0.4062 -0.2323 -0.2737
 3259SOL     OW11217   0.012   2.372   3.211 -0.0419  0.2673  0.5529
 3259SOL    HW111218   0.097   2.372   3.256  0.3757 -0.6854 -0.2154
 3259SOL    HW211219  -0.046   2.325   3.271  0.6295 -1.4233 -0.0645
 3260SOL     OW11220   6.378   7.676  12.047 -0.0245 -0.4226  0.3818
 3260SOL    HW111221   6.398   7.759  12.004 -1.6351 -0.3963 -0.3802
 3260SOL    HW211222   6.415   7.685  12.134  1.1494  0.4923 -0.1849
 3261SOL     OW11223   2.002   6.865  10.895 -0.0136 -0.3810  0.1082
 3261SOL    HW111224   2.003   6.893  10.804  3.1981  3.1129  0.9631
 3261SOL    HW211225   2.089   6.826  10.908 -0.6383 -1.3540  1.5741
 3262SOL     OW11226   0.068   3.678   5.302 -0.0000 -0.0161  0.2145
 3262SOL    HW111227  -0.016   3.639   5.278 -0.6301 -0.3406  2.6858
 3262SOL    HW211228   0.072   3.669   5.397  2.8870 -0.0934  0.1719
 3263SOL     OW11229   0.514   3.721  10.816 -0.2741  0.0281 -0.4652
 3263SOL    HW111230   0.441   3.746  10.759 -1.2578 -0.3597  0.5995
 3263SOL    HW211231   0.475   3.666  10.884  1.3716 -2.3283 -1.2440
 3264SOL     OW11232   7.346   5.641   5.733 -0.0363  0.0958  0.5049
 3264SOL    HW111233   7.403   5.708   5.771 -1.1210  0.6871  1.1424
 3264SOL    HW211234   7.298   5.605   5.808 -2.1593  1.2227 -0.2421
 3265SOL     OW11235   2.721   2.810   3.444  0.2642  0.1082 -0.9183
 3265SOL    HW111236   2.813   2.823   3.423  0.8517  0.3964  1.5621
 3265SOL    HW211237   2.706   2.717   3.431  1.2091 -0.1378 -0.3052
 3266SOL     OW11238   3.648   2.572  10.100  0.5469 -0.6043  0.1314
 3266SOL    HW111239   3.690   2.520  10.168  1.7812 -1.9914 -1.6027
 3266SOL    HW211240   3.617   2.509  10.035  0.4011  0.7010 -1.1469
 3267SOL     OW11241   0.201   1.454   8.255  0.2841  0.3836 -0.4047
 3267SOL    HW111242   0.265   1.403   8.304  2.1218  0.2485 -2.7296
 3267SOL    HW211243   0.238   1.459   8.166 -1.5279  2.8239 -1.1271
 3268SOL     OW11244   4.285   7.866   7.197 -0.1515 -0.0270  0.1277
 3268SOL    HW111245   4.207   7.811   7.183 -1.1428  0.5219  2.7817
 3268SOL    HW211246   4.358   7.804   7.197 -0.6437 -0.6665 -1.6015
 3269SOL     OW11247   5.505   2.940   8.651 -0.4339 -0.1557  0.6072
 3269SOL    HW111248   5.468   2.957   8.564 -0.9953 -0.2952  0.8175
 3269SOL    HW211249   5.477   3.014   8.704  2.2869  1.4619 -0.0111
 3270SOL     OW11250   5.062   0.780  12.369  0.1261  0.1114 -0.1313
 3270SOL    HW111251   5.081   0.869  12.341 -0.6531  0.4994  0.5450
 3270SOL    HW211252   4.970   0.781  12.393  0.7408 -0.1386  2.6022
 3271SOL     OW11253   3.012   0.115   3.323  0.1016 -0.2501 -0.1155
 3271SOL    HW111254   3.012   0.205   3.355 -0.1628 -0.4091  0.3482
 3271SOL    HW211255   3.094   0.078   3.355 -0.8303 -0.8526  1.7061
 3272SOL     OW11256   5.139   7.032   4.975  0.3634  0.0423 -0.0891
 3272SOL    HW111257   5.152   7.127   4.982  0.6259  0.2295 -2.2089
 3272SOL    HW211258   5.206   7.004   4.912 -0.5207 -1.3323 -0.4545
 3273SOL     OW11259   2.638   0.870   1.922  0.1904 -0.2969 -0.2796
 3273SOL    HW111260   2.555   0.910   1.895  0.9287  0.4387 -1.5171
 3273SOL    HW211261   2.651   0.902   2.012 -0.7938 -0.3321 -0.1084
 3274SOL     OW11262   7.533   1.278  10.203 -0.0431 -0.0727  0.7150
 3274SOL    HW111263   7.530   1.198  10.151  2.1170  0.1073  0.2074
 3274SOL    HW211264   7.624   1.283  10.234 -0.9837  0.3723  3.6952
 3275SOL     OW11265   3.358   7.166   0.740  0.0747  0.1106 -0.4110
 3275SOL    HW111266   3.408   7.226   0.794  1.5100  0.2521 -1.8402
 3275SOL    HW211267   3.305   7.222   0.683 -1.3172 -0.0379  0.6715
 3276SOL     OW11268   2.920   0.895   9.214  0.1352 -0.2392 -0.0416
 3276SOL    HW111269   3.014   0.875   9.217  0.0000 -0.9113 -0.1299
 3276SOL    HW211270   2.913   0.970   9.154  0.8465  1.2887  1.6984
 3277SOL     OW11271   1.806   0.761   4.708 -0.3892  0.2951 -0.0626
 3277SOL    HW111272   1.730   0.702   4.709 -0.4977  0.4297 -0.3193
 3277SOL    HW211273   1.805   0.801   4.621  0.3133 -0.1340 -0.2788
 3278SOL     OW11274   1.828   6.145   4.134  0.8202 -0.4397  0.0669
 3278SOL    HW111275   1.788   6.184   4.212  1.2393  2.0801 -0.8696
 3278SOL    HW211276   1.917   6.180   4.132  0.0847  1.6591 -2.7710
 3279SOL     OW11277   5.102   3.031  11.306  0.2395  0.4692  0.4105
 3279SOL    HW111278   5.010   3.003  11.315  0.4838 -0.8870 -0.8488
 3279SOL    HW211279   5.104   3.080  11.223  0.4483  1.5227  1.0200
 3280SOL     OW11280   6.710   5.840   0.446 -0.4459  0.0877  0.1473
 3280SOL    HW111281   6.703   5.906   0.377 -2.1753 -0.7661 -0.5641
 3280SOL    HW211282   6.737   5.760   0.401 -2.3963 -0.6875  0.2549
 3281SOL     OW11283   5.200   3.515   6.434  0.4660  0.2877  0.2422
 3281SOL    HW111284   5.222   3.572   6.508  0.7322 -1.0412  1.2213
 3281SOL    HW211285   5.123   3.467   6.464 -0.0402  0.4548 -0.7597
 3282SOL     OW11286   6.770   6.249   3.235  0.3719 -0.5383  0.3336
 3282SOL    HW111287   6.747   6.175   3.290 -0.4283 -1.2601 -0.9132
 3282SOL    HW211288   6.797   6.210   3.152  0.7027  0.5335 -0.0902
 3283SOL     OW11289   2.152   1.471  11.904 -0.1630 -0.1423 -0.0102
 3283SOL    HW111290   2.166   1.486  11.998 -1.5248  0.8512  0.0609
 3283SOL    HW211291   2.131   1.378  11.897 -0.7362 -0.0772  0.7654
 3284SOL     OW11292   0.824   2.093   4.524 -0.0479 -0.3657 -0.1561
 3284SOL    HW111293   0.825   2.145   4.604 -1.2306  1.6240 -1.3396
 3284SOL    HW211294   0.760   2.137   4.468  1.3886 -1.1089 -2.5415
 3285SOL     OW11295   2.149   2.268   1.326 -0.1523  0.6595 -0.2725
 3285SOL    HW111296   2.214   2.259   1.256 -0.5987  1.6379 -0.8441
 3285SOL    HW211297   2.076   2.314   1.284 -0.5994  0.8822  0.7351
 3286SOL     OW11298   0.023   3.343   7.511 -0.2845  0.0663 -0.2356
 3286SOL    HW111299   0.113   3.348   7.479  0.0738  1.3078  0.8784
 3286SOL    HW211300  -0.021   3.284   7.449  0.3969  2.1360 -2.9137
 3287SOL     OW11301   3.980   6.334  12.066  0.5251  0.2996  0.3511
 3287SOL    HW111302   3.895   6.374  12.083  0.2139 -0.3443  0.3575
 3287SOL    HW211303   4.006   6.296  12.150 -0.2789 -1.5119 -0.1608
 3288SOL     OW11304   1.270   5.226   6.870  0.4436  0.6574 -0.0890
 3288SOL    HW111305   1.267   5.285   6.945 -0.1334  0.7912 -0.2106
 3288SOL    HW211306   1.265   5.283   6.794 -0.0117  0.4585 -0.2097
 3289SOL     OW11307   6.952   0.064   4.497  0.0450  0.3836 -0.1188
 3289SOL    HW111308   6.992   0.116   4.427  0.0303  0.5053 -0.0357
 3289SOL    HW211309   6.991  -0.023   4.486  0.8935  0.6887  0.4222
 3290SOL     OW11310   3.495   1.556   0.331 -0.4010  0.3609  0.1347
 3290SOL    HW111311   3.493   1.461   0.323 -2.2408  0.3860 -0.2216
 3290SOL    HW211312   3.403   1.582   0.329  0.1071  2.2825 -1.4624
 3291SOL     OW11313   0.268   1.138   2.515  0.0518  0.2254 -0.1209
 3291SOL    HW111314   0.216   1.219   2.510  0.3531  0.4011 -0.4473
 3291SOL    HW211315   0.276   1.121   2.609 -0.6611  0.1524 -0.0654
 3292SOL     OW11316   0.870   6.114   2.574 -0.1411  0.7879 -0.0869
 3292SOL    HW111317   0.803   6.046   2.588 -0.1658  1.1225  1.7652
 3292SOL    HW211318   0.930   6.076   2.510 -0.0378 -1.0979  1.0409
 3293SOL     OW11319   2.114   7.047  11.360 -0.1581  0.0135  0.2390
 3293SOL    HW111320   2.137   7.135  11.329 -1.6724  0.0264 -0.9785
 3293SOL    HW211321   2.148   7.043  11.449 -0.0122  1.8123  0.2987
 3294SOL     OW11322   2.340   4.979   9.771  0.3515 -0.0725 -0.8789
 3294SOL    HW111323   2.249   4.990   9.798  0.8055 -0.5316  1.0321
 3294SOL    HW211324   2.349   5.033   9.693 -0.9305  2.0359  0.3295
 3295SOL     OW11325   4.996   2.831   9.027 -0.2254 -0.7416  0.5183
 3295SOL    HW111326   4.981   2.888   9.102  1.5647  0.2031  0.1974
 3295SOL    HW211327   5.002   2.743   9.064 -0.5308 -0.4330  1.3225
 3296SOL     OW11328   5.251   6.119   2.011  0.2723  0.4927  0.3091
 3296SOL    HW111329   5.234   6.213   2.009 -1.4917  0.2056  0.1765
 3296SOL    HW211330   5.296   6.105   2.094  1.6381  1.5874 -0.1993
 3297SOL     OW11331   6.855   5.079   8.893 -0.2384 -0.4376  0.0078
 3297SOL    HW111332   6.840   5.055   8.801 -2.1363  0.0813  0.1348
 3297SOL    HW211333   6.886   5.170   8.889 -0.1756 -0.4641 -0.1194
 3298SOL     OW11334   2.595   3.518   0.232  0.3027  0.0862  0.4653
 3298SOL    HW111335   2.611   3.577   0.305  0.3078  0.5969  0.0614
 3298SOL    HW211336   2.674   3.524   0.179  0.2372 -0.1636  0.3372
 3299SOL     OW11337   2.753   4.436  10.507  0.3773  0.0891 -0.0123
 3299SOL    HW111338   2.669   4.459  10.467 -0.5685  0.2005  1.9122
 3299SOL    HW211339   2.751   4.479  10.593  2.7996  0.8349 -0.2418
 3300SOL     OW11340   0.610   6.256   5.832  0.1440  0.8150  0.4551
 3300SOL    HW111341   0.604   6.281   5.924 -1.0532 -0.0881  0.6479
 3300SOL    HW211342   0.520   6.240   5.806  0.6296 -1.0320 -0.2590
 3301SOL     OW11343   4.465   7.827   4.737  0.3681 -0.3014 -0.5239
 3301SOL    HW111344   4.502   7.747   4.699  1.1703  0.4547 -1.3688
 3301SOL    HW211345   4.541   7.877   4.765 -0.1672 -0.1856  0.7539
 3302SOL     OW11346   4.768   1.483   6.048  0.4455 -0.3651 -0.2107
 3302SOL    HW111347   4.830   1.556   6.037  0.5098 -0.5229 -0.9753
 3302SOL    HW211348   4.689   1.513   6.004  0.1460 -0.3725  0.3225
 3303SOL     OW11349   4.547   6.010   6.875  0.3267 -0.3290 -0.1764
 3303SOL    HW111350   4.475   5.991   6.814  0.3914 -0.1939 -0.2975
 3303SOL    HW211351   4.511   5.991   6.961  0.4279 -1.1122 -0.2960
 3304SOL     OW11352   5.205   2.917  10.697 -0.0134  0.1662  0.0481
 3304SOL    HW111353   5.111   2.904  10.692  0.1445 -1.2463  0.3289
 3304SOL    HW211354   5.241   2.865  10.625  0.5661  0.4608  0.1138
 3305SOL     OW11355   1.827   1.207   1.479  0.1334  0.6798 -0.2895
 3305SOL    HW111356   1.792   1.151   1.410 -0.6715  1.6677 -0.7131
 3305SOL    HW211357   1.816   1.156   1.559  1.4271 -0.6332 -0.9121
 3306SOL     OW11358   7.207   1.197  10.606 -0.2600  0.1427  0.4266
 3306SOL    HW111359   7.129   1.200  10.661 -1.2520  1.0013 -0.9554
 3306SOL    HW211360   7.201   1.113  10.560 -0.0036 -0.0866  0.8034
 3307SOL     OW11361   2.737   7.055   2.375 -0.2221 -0.3093  0.2857
 3307SOL    HW111362   2.735   7.145   2.408 -1.0457 -0.6450  1.2280
 3307SOL    HW211363   2.822   7.021   2.402 -0.0770  0.0633  0.2967
 3308SOL     OW11364   6.123   6.759   4.659 -0.0540  0.4591 -0.3113
 3308SOL    HW111365   6.058   6.758   4.589 -0.1341  0.3885 -0.2350
 3308SOL    HW211366   6.088   6.822   4.722 -0.2513  0.1165 -0.0754
 3309SOL     OW11367   1.111   4.538   8.237  0.5254  0.0126 -0.6439
 3309SOL    HW111368   1.023   4.560   8.268  0.1893 -0.9587 -0.8754
 3309SOL    HW211369   1.161   4.519   8.317 -0.1835 -1.9216 -0.6119
 3310SOL     OW11370   4.431   5.147   0.497  0.1281 -0.1592 -0.0495
 3310SOL    HW111371   4.395   5.228   0.533 -1.2677 -0.9899  0.4893
 3310SOL    HW211372   4.367   5.080   0.521  0.5249 -1.1876 -1.7513
 3311SOL     OW11373   1.965   6.668   9.034 -0.3688  0.2707 -0.0792
 3311SOL    HW111374   1.978   6.684   8.941  0.1702 -1.2663 -0.2915
 3311SOL    HW211375   1.870   6.671   9.046 -0.4678 -0.0102 -0.7705
 3312SOL     OW11376   3.251   7.682   7.398  0.2230  0.5556  0.1644
 3312SOL    HW111377   3.296   7.629   7.332  1.0238 -1.4919  2.2382
 3312SOL    HW211378   3.299   7.765   7.400  0.8405  0.2436 -1.0312
 3313SOL     OW11379   3.565   4.758  10.128 -0.2312  0.0214  0.0360
 3313SOL    HW111380   3.499   4.827  10.119 -1.3552 -1.0650 -0.3616
 3313SOL    HW211381   3.565   4.713  10.044  0.2927 -0.6378  0.3732
 3314SOL     OW11382   2.446   7.315   9.439  0.0433  0.2382  0.3977
 3314SOL    HW111383   2.433   7.403   9.404  2.9193  0.9425  0.8550
 3314SOL    HW211384   2.516   7.278   9.385 -1.0417 -1.7663  0.2800
 3315SOL     OW11385   1.752   5.296   0.094  0.5565  0.1581  0.0913
 3315SOL    HW111386   1.667   5.322   0.057 -0.7664  1.1912  3.5007
 3315SOL    HW211387   1.779   5.371   0.147  2.2996 -1.1606  1.1530
 3316SOL     OW11388   0.369   2.506   9.714 -0.1476  0.2247  0.2504
 3316SOL    HW111389   0.339   2.587   9.755 -0.8519  0.6745 -1.0913
 3316SOL    HW211390   0.402   2.533   9.629 -1.4189 -1.0086 -0.6845
 3317SOL     OW11391   5.539   2.938   2.107  0.0807  0.1479 -0.1257
 3317SOL    HW111392   5.481   2.865   2.085 -0.2371  0.7157 -1.2151
 3317SOL    HW211393   5.627   2.905   2.090 -0.1631  0.7674 -3.0555
 3318SOL     OW11394   2.258   6.619  11.560  0.2528 -0.2813  0.0050
 3318SOL    HW111395   2.349   6.629  11.535 -0.0599  0.2953 -0.9813
 3318SOL    HW211396   2.228   6.708  11.580  0.2601 -0.6263  1.6902
 3319SOL     OW11397   5.104   3.126   6.795 -0.1352 -0.1861 -0.4536
 3319SOL    HW111398   5.013   3.114   6.822 -0.2505  1.2680 -0.1073
 3319SOL    HW211399   5.154   3.065   6.850 -0.7883 -0.2383  0.0899
 3320SOL     OW11400   3.695   4.787   6.656 -0.5298 -0.1164  0.0520
 3320SOL    HW111401   3.786   4.811   6.672 -1.1313  2.5748 -0.0628
 3320SOL    HW211402   3.658   4.771   6.744 -0.1381 -0.5613  0.1405
 3321SOL     OW11403   5.345   1.763   0.197 -0.6389  0.1942  0.3926
 3321SOL    HW111404   5.279   1.760   0.267  0.4333 -0.4306  1.4146
 3321SOL    HW211405   5.428   1.746   0.242  0.0047 -0.9000 -1.1377
 3322SOL     OW11406   1.276   3.498  12.053  0.2842 -0.3900  0.2894
 3322SOL    HW111407   1.350   3.555  12.034  0.9632 -1.6101 -0.9238
 3322SOL    HW211408   1.199   3.550  12.029  0.8119  0.4145  0.3008
 3323SOL     OW11409   4.794   4.097   0.796 -0.7109  0.2339  0.4110
 3323SOL    HW111410   4.865   4.153   0.765 -0.5009  0.4046  1.1611
 3323SOL    HW211411   4.761   4.053   0.718  1.5108 -1.3544  0.2842
 3324SOL     OW11412   6.329   7.721   4.170 -0.3189 -0.2760 -0.6015
 3324SOL    HW111413   6.362   7.684   4.089 -0.4544  0.5462 -1.0439
 3324SOL    HW211414   6.340   7.816   4.160 -1.4841 -0.0733 -0.1876
 3325SOL     OW11415   1.086   4.405   3.935 -0.2695  0.5556 -0.0716
 3325SOL    HW111416   1.028   4.331   3.950 -1.3679  1.1348 -1.2910
 3325SOL    HW211417   1.163   4.367   3.893 -1.3202  0.2194 -1.7894
 3326SOL     OW11418   1.137   6.445   9.960  0.1232 -0.2476  0.0580
 3326SOL    HW111419   1.212   6.440  10.018  0.6125  2.9940 -0.0900
 3326SOL    HW211420   1.167   6.408   9.877  1.2960  0.2186  0.2617
 3327SOL     OW11421   2.172   7.288   3.794 -0.6232 -0.2649 -0.1166
 3327SOL    HW111422   2.167   7.261   3.702 -1.4741 -0.6303  0.0244
 3327SOL    HW211423   2.119   7.368   3.798 -0.2014  0.0159 -0.0290
 3328SOL     OW11424   2.752   2.044   9.083 -0.6752 -0.1554  0.0167
 3328SOL    HW111425   2.768   2.079   9.171  0.8880 -0.4119 -0.1352
 3328SOL    HW211426   2.672   2.087   9.054 -0.0895  1.5071  0.7634
 3329SOL     OW11427   4.504   6.339   6.861 -0.5321  0.3490  0.1534
 3329SOL    HW111428   4.492   6.348   6.956  0.3794  0.2862  0.2769
 3329SOL    HW211429   4.588   6.295   6.851 -0.4844  0.6136 -0.6975
 3330SOL     OW11430   0.964   6.550  11.249  0.2644 -0.6295  0.3005
 3330SOL    HW111431   0.921   6.601  11.180  0.4319  0.2152  0.8010
 3330SOL    HW211432   1.052   6.590  11.257  0.4059 -1.0071  0.6820
 3331SOL     OW11433   1.970   7.460   1.309 -0.7620 -0.0740 -0.9910
 3331SOL    HW111434   2.028   7.490   1.239  0.0063 -0.5951 -0.5868
 3331SOL    HW211435   1.906   7.531   1.319 -0.2547  0.4659 -1.4958
 3332SOL     OW11436   3.771   3.281   7.626 -0.5251  0.1484  0.0393
 3332SOL    HW111437   3.677   3.293   7.641 -0.9867 -1.1867 -1.4643
 3332SOL    HW211438   3.806   3.370   7.619 -1.3585  0.7173  2.1383
 3333SOL     OW11439   0.147   6.115   5.628  0.3094  0.4052  0.1017
 3333SOL    HW111440   0.053   6.100   5.625  0.4573 -0.4697 -1.5939
 3333SOL    HW211441   0.167   6.163   5.547  1.2059  1.3258  0.8472
 3334SOL     OW11442   0.186   5.469   7.950  0.6696  0.0474 -0.5905
 3334SOL    HW111443   0.254   5.428   8.003  0.5570  1.6319  0.8900
 3334SOL    HW211444   0.225   5.552   7.922  0.3467 -0.2988 -2.1832
 3335SOL     OW11445   1.742   7.729  11.741 -0.1347  0.4598  0.2598
 3335SOL    HW111446   1.768   7.772  11.660 -1.8350  0.4682 -0.3155
 3335SOL    HW211447   1.825   7.709  11.785  0.9349 -1.1940 -2.2986
 3336SOL     OW11448   4.973   7.495   5.800 -0.1151  0.2845 -0.1022
 3336SOL    HW111449   4.998   7.555   5.730  0.8512  1.0240  0.8436
 3336SOL    HW211450   4.877   7.496   5.799 -0.1099  1.2267 -0.6103
 3337SOL     OW11451   1.471   1.046   4.625 -0.9317  0.2147 -0.2533
 3337SOL    HW111452   1.519   1.122   4.592  0.1920 -0.6696 -0.6881
 3337SOL    HW211453   1.486   0.978   4.560  1.3278 -1.5833  1.9679
 3338SOL     OW11454   0.536   7.217   4.023 -0.7042  0.1181  0.6055
 3338SOL    HW111455   0.449   7.177   4.026 -0.6354 -0.0177  2.8716
 3338SOL    HW211456   0.558   7.233   4.115  0.9020  1.8401 -0.0105
 3339SOL     OW11457   2.039   6.282   4.745 -0.4697  0.1963  0.2072
 3339SOL    HW111458   2.099   6.209   4.760 -2.2558 -1.3632  0.2857
 3339SOL    HW211459   2.051   6.340   4.820 -0.6510 -1.2560  1.4060
 3340SOL     OW11460   7.297   2.195   2.974  0.1495  0.3166  0.2466
 3340SOL    HW111461   7.246   2.223   2.898  0.2118 -0.2221  0.0075
 3340SOL    HW211462   7.258   2.242   3.048  1.1320  2.1774 -0.3302
 3341SOL     OW11463   5.712   4.067   2.649  0.3135  0.0444 -0.4068
 3341SOL    HW111464   5.621   4.082   2.674  0.0305 -1.8327 -0.1501
 3341SOL    HW211465   5.761   4.076   2.730  0.5996  2.3909 -0.7662
 3342SOL     OW11466   1.619   6.494   9.064  0.0122  0.1507  0.5935
 3342SOL    HW111467   1.687   6.454   9.010  0.1512  0.2577  0.6876
 3342SOL    HW211468   1.645   6.586   9.071 -1.4821  0.7907 -1.4897
 3343SOL     OW11469   0.349   4.250   0.510 -0.0950 -0.1316 -0.1607
 3343SOL    HW111470   0.287   4.192   0.466 -0.5803  2.7223 -3.7887
 3343SOL    HW211471   0.311   4.338   0.499  2.3218  1.2901  1.7507
 3344SOL     OW11472   4.518   5.742   1.942  0.1117 -0.2149  0.0661
 3344SOL    HW111473   4.525   5.826   1.897 -3.0500  0.0898 -0.0837
 3344SOL    HW211474   4.533   5.764   2.034 -0.0648  0.4169 -0.0483
 3345SOL     OW11475   4.615   1.413   1.793  0.1554 -0.3377 -0.3582
 3345SOL    HW111476   4.595   1.337   1.738  0.1252  0.9609 -2.2407
 3345SOL    HW211477   4.711   1.419   1.791  0.2438 -0.9907  0.7955
 3346SOL     OW11478   0.621   7.750   2.884 -0.4896 -0.2107  0.1344
 3346SOL    HW111479   0.550   7.716   2.938 -1.7716 -1.3295 -2.0942
 3346SOL    HW211480   0.578   7.785   2.806  1.3150  0.2213 -0.7456
 3347SOL     OW11481   0.876   0.385   9.302  0.1067 -0.0774 -0.3210
 3347SOL    HW111482   0.968   0.411   9.310 -0.0559 -0.0022  1.6261
 3347SOL    HW211483   0.828   0.467   9.294  0.0283  0.0241  0.9805
 3348SOL     OW11484   4.922   2.110   0.636 -0.0020  0.0578  0.3137
 3348SOL    HW111485   4.857   2.180   0.649 -1.6261 -1.3237 -0.0438
 3348SOL    HW211486   4.872   2.037   0.602  2.0663 -0.5128 -1.7229
 3349SOL     OW11487   5.636   4.661   0.557  0.1395  0.0524 -0.4816
 3349SOL    HW111488   5.556   4.714   0.565 -0.6491 -0.9731 -1.3084
 3349SOL    HW211489   5.632   4.625   0.468  1.7821  0.3677 -0.7131
 3350SOL     OW11490   2.530   6.969   3.796  0.5602 -0.0474  1.0182
 3350SOL    HW111491   2.620   7.003   3.793  0.5180  0.0163  0.2299
 3350SOL    HW211492   2.532   6.903   3.865  1.8466 -1.7389 -0.5284
 3351SOL     OW11493   4.153   6.064   2.578  0.1196 -0.0570  0.6339
 3351SOL    HW111494   4.146   5.974   2.611  3.2671 -0.9511 -0.7802
 3351SOL    HW211495   4.244   6.074   2.553 -0.5833  2.8473 -1.3124
 3352SOL     OW11496   6.087   0.381   4.943 -0.0477 -0.0499  0.4355
 3352SOL    HW111497   6.123   0.442   5.007 -0.1323 -0.0698  0.5008
 3352SOL    HW211498   6.155   0.314   4.933  0.8169  0.9577 -0.9183
 3353SOL     OW11499   5.886   1.964  10.963  0.3667  0.1888 -0.2663
 3353SOL    HW111500   5.979   1.941  10.958  0.1693 -0.5665 -0.6316
 3353SOL    HW211501   5.878   2.010  11.046  1.6781  3.2049 -1.6510
 3354SOL     OW11502   1.012   3.881   4.527  0.5683 -0.5704 -0.5215
 3354SOL    HW111503   0.988   3.963   4.484  0.7653 -1.5143 -2.5521
 3354SOL    HW211504   0.954   3.816   4.487 -1.3797 -1.1342  2.8087
 3355SOL     OW11505   5.539   4.948   7.278  0.1088  0.3074  0.5744
 3355SOL    HW111506   5.591   4.894   7.218 -1.1236 -0.5231  0.1978
 3355SOL    HW211507   5.506   4.885   7.343 -1.3979  0.5876  0.1044
 3356SOL     OW11508   7.059   5.552   1.927  0.3068  0.1762  0.1557
 3356SOL    HW111509   7.151   5.577   1.916  0.4939  0.4112  2.0065
 3356SOL    HW211510   7.061   5.456   1.933  0.4679  0.1981  0.4658
 3357SOL     OW11511   3.034   1.969   1.863  0.0103  0.0800 -0.2708
 3357SOL    HW111512   3.020   1.945   1.954 -0.0169  0.7369 -0.1028
 3357SOL    HW211513   3.086   2.049   1.866  1.4706 -0.7985 -0.8567
 3358SOL     OW11514   5.822   5.122   8.176  0.0460 -0.5213  0.0867
 3358SOL    HW111515   5.898   5.065   8.171  1.0636  0.4668  2.5481
 3358SOL    HW211516   5.800   5.123   8.269  0.4341  3.4679  0.2728
 3359SOL     OW11517   4.386   2.347   1.780 -0.3073  0.3111  0.6149
 3359SOL    HW111518   4.342   2.312   1.702  0.5253  0.0013  0.2740
 3359SOL    HW211519   4.473   2.307   1.779  0.1512  1.2533  1.0201
 3360SOL     OW11520   2.672   3.615   2.201 -0.7252 -0.2271 -0.2312
 3360SOL    HW111521   2.716   3.534   2.227 -0.6356 -0.5560 -1.3687
 3360SOL    HW211522   2.688   3.622   2.107 -3.7615 -0.8296 -0.9026
 3361SOL     OW11523   2.470   3.366   6.133  0.2495  0.6671  0.3860
 3361SOL    HW111524   2.383   3.388   6.100  0.1185 -0.0845  0.2005
 3361SOL    HW211525   2.531   3.405   6.070  0.0032 -1.5468 -1.3678
 3362SOL     OW11526   2.294   3.753   6.708  0.0520 -0.0085  0.1097
 3362SOL    HW111527   2.294   3.691   6.781 -2.0233 -0.4865 -0.2343
 3362SOL    HW211528   2.286   3.698   6.630 -0.0866  0.6085 -0.3181
 3363SOL     OW11529   0.519   7.775   9.392 -0.4459  0.3272  0.0044
 3363SOL    HW111530   0.432   7.743   9.415 -0.0656 -2.1519 -1.6384
 3363SOL    HW211531   0.574   7.751   9.466 -0.4165 -1.9397 -0.6746
 3364SOL     OW11532   2.765   1.263   4.017  0.1330 -0.0858 -0.3266
 3364SOL    HW111533   2.833   1.205   4.051  0.5061  1.2626  1.3497
 3364SOL    HW211534   2.803   1.351   4.023 -1.3063  0.5736 -0.5220
 3365SOL     OW11535   0.837   1.783   0.541  0.7473  0.5106 -0.3318
 3365SOL    HW111536   0.863   1.840   0.613  2.9500 -0.2573 -0.4426
 3365SOL    HW211537   0.910   1.722   0.530 -0.9766 -1.5855 -1.0005
 3366SOL     OW11538   0.219   1.581   2.900 -0.3639  0.0795 -0.2068
 3366SOL    HW111539   0.261   1.497   2.918  0.7835  0.4479 -1.0847
 3366SOL    HW211540   0.126   1.565   2.920 -0.2828 -1.5814 -0.9665
 3367SOL     OW11541   0.089   5.970   3.205 -0.7287  0.0895  0.1311
 3367SOL    HW111542   0.130   6.035   3.262 -1.1364 -0.5706  1.2109
 3367SOL    HW211543   0.091   5.889   3.256 -2.1615 -0.2571 -0.3194
 3368SOL     OW11544   4.999   3.679  11.363  0.2900 -0.6245 -0.8932
 3368SOL    HW111545   5.038   3.723  11.439 -1.8885 -0.2167  0.0752
 3368SOL    HW211546   4.989   3.748  11.298  2.2588 -0.9952 -1.6603
 3369SOL     OW11547   2.527   1.245  11.676  0.5418 -0.0276 -0.1619
 3369SOL    HW111548   2.569   1.331  11.670  1.9101 -0.7009 -0.5848
 3369SOL    HW211549   2.500   1.238  11.768  1.2577  0.4727  0.0980
 3370SOL     OW11550   1.007   5.461   0.406 -0.7946  0.5380 -0.2057
 3370SOL    HW111551   0.913   5.470   0.392 -0.4185  1.3438 -2.5917
 3370SOL    HW211552   1.030   5.533   0.464 -1.6823  0.0855  0.7421
 3371SOL     OW11553   7.504   0.128   1.110  0.2736  0.2613  0.3738
 3371SOL    HW111554   7.460   0.210   1.130 -0.6041 -0.2385  0.5408
 3371SOL    HW211555   7.558   0.147   1.033 -2.1912  0.2681 -1.4486
 3372SOL     OW11556   4.744   4.793   5.820  0.0780 -0.9316 -0.5204
 3372SOL    HW111557   4.743   4.888   5.814 -0.6446 -0.9469 -0.6440
 3372SOL    HW211558   4.759   4.775   5.913 -0.6434 -0.6985 -0.3589
 3373SOL     OW11559   2.170   6.390   5.013  1.0426 -0.1207 -0.0752
 3373SOL    HW111560   2.146   6.353   5.098 -1.3730 -0.0471 -0.6660
 3373SOL    HW211561   2.238   6.454   5.034 -0.5035  0.9620  2.0287
 3374SOL     OW11562   7.106   2.185   1.483 -0.2694  0.0586  0.3262
 3374SOL    HW111563   7.133   2.145   1.400  0.1327 -0.6807  0.8052
 3374SOL    HW211564   7.093   2.112   1.543 -0.9339  0.5644  0.8165
 3375SOL     OW11565   7.890   3.521  12.034 -0.1075  0.6094 -0.3644
 3375SOL    HW111566   7.816   3.572  12.067  1.5695  3.1694 -0.3290
 3375SOL    HW211567   7.865   3.498  11.945 -0.8025  1.7540 -0.4834
 3376SOL     OW11568   1.756   0.763   0.140 -0.3769  0.0888  0.9480
 3376SOL    HW111569   1.822   0.719   0.193  1.8783  1.3587 -0.6550
 3376SOL    HW211570   1.731   0.839   0.192  0.7853  0.5736  0.8215
 3377SOL     OW11571   5.642   0.453   3.411  0.7960  0.7482 -0.0788
 3377SOL    HW111572   5.637   0.503   3.329 -0.0596 -0.1020 -0.5623
 3377SOL    HW211573   5.712   0.390   3.398  1.2846  1.2291  0.2001
 3378SOL     OW11574   4.647   4.726   0.015 -0.3263 -0.0246  0.6085
 3378SOL    HW111575   4.604   4.809   0.034  0.1394  0.5835 -0.8428
 3378SOL    HW211576   4.576   4.663   0.008 -0.8194  0.5468  0.3201
 3379SOL     OW11577   0.285   3.727   7.066 -0.6647 -0.0492 -0.3499
 3379SOL    HW111578   0.261   3.704   7.156 -0.8735 -0.7480 -0.5796
 3379SOL    HW211579   0.228   3.801   7.044 -0.3890  0.3306  0.1997
 3380SOL     OW11580   0.738   6.408   7.409  0.0020  0.1542  0.2153
 3380SOL    HW111581   0.741   6.354   7.330  0.6738 -1.3517  1.2276
 3380SOL    HW211582   0.821   6.391   7.453 -0.6590  0.4254  1.6047
 3381SOL     OW11583   3.288   5.549   3.027  0.0172 -0.6486 -0.4054
 3381SOL    HW111584   3.220   5.615   3.021 -1.4203 -2.1625 -1.9869
 3381SOL    HW211585   3.248   5.477   3.076 -0.1772 -2.1821 -2.6347
 3382SOL     OW11586   6.729   3.578   0.956  0.5479  0.6463 -0.4237
 3382SOL    HW111587   6.745   3.622   0.872 -0.1209  0.6539 -0.5490
 3382SOL    HW211588   6.711   3.487   0.932  2.1669  0.2141 -0.1510
 3383SOL     OW11589   6.941   6.689   9.252  0.3563  0.4932  0.1270
 3383SOL    HW111590   6.923   6.760   9.313  0.4090 -0.9042  1.8733
 3383SOL    HW211591   6.856   6.667   9.215  0.4960  2.1333 -1.2808
 3384SOL     OW11592   1.162   6.751   4.039  0.0662  0.2061  0.2214
 3384SOL    HW111593   1.106   6.718   4.109  0.6796 -0.4371  0.4202
 3384SOL    HW211594   1.102   6.801   3.982 -0.6486 -0.2249  0.5780
 3385SOL     OW11595   0.596   7.273  12.320 -0.0223  0.0843  0.0444
 3385SOL    HW111596   0.571   7.303  12.233 -0.4807  0.3877  0.2755
 3385SOL    HW211597   0.649   7.195  12.304  0.4881  0.5398 -0.5302
 3386SOL     OW11598   4.118   1.246   5.836  0.7259  0.7299  0.1180
 3386SOL    HW111599   4.095   1.154   5.822 -2.7662  1.4284  0.3338
 3386SOL    HW211600   4.211   1.251   5.816  0.7249 -2.5560 -1.2869
 3387SOL     OW11601   4.584   7.299  10.424  0.4251 -0.2910  0.0213
 3387SOL    HW111602   4.579   7.206  10.402 -0.8466 -0.1835 -0.2169
 3387SOL    HW211603   4.507   7.338  10.381  1.8927  1.1902 -1.4028
 3388SOL     OW11604   2.082   1.363   4.713 -0.4904 -0.2403  0.3876
 3388SOL    HW111605   2.025   1.350   4.638 -3.1243 -0.4559  2.2678
 3388SOL    HW211606   2.083   1.458   4.726  1.2041 -0.0617 -0.7261
 3389SOL     OW11607   3.153   1.509   8.999  0.2096  0.5818 -0.4460
 3389SOL    HW111608   3.117   1.501   8.910  0.0916  0.7194 -0.4107
 3389SOL    HW211609   3.121   1.432   9.045  1.2833 -0.1566 -0.8736
 3390SOL     OW11610   3.606   7.596   6.152 -0.2614  0.2343 -0.1976
 3390SOL    HW111611   3.523   7.571   6.111 -0.6036  0.8240  0.1111
 3390SOL    HW211612   3.611   7.542   6.230 -0.4667  0.3412 -0.1065
 3391SOL     OW11613   7.224   2.531   9.823 -0.3457  0.2064  0.1016
 3391SOL    HW111614   7.150   2.495   9.773 -0.4256  1.7195 -0.9272
 3391SOL    HW211615   7.266   2.592   9.763  1.8329 -0.7044  0.6365
 3392SOL     OW11616   5.361   3.467  11.971 -0.0931 -0.0499 -0.0570
 3392SOL    HW111617   5.342   3.561  11.972  0.5886  0.1507 -1.9782
 3392SOL    HW211618   5.320   3.435  11.891  0.2707 -1.2688  0.2246
 3393SOL     OW11619   5.681   1.625   7.615 -0.4152  0.3728 -0.0741
 3393SOL    HW111620   5.670   1.541   7.660 -2.2335 -0.0810 -1.2198
 3393SOL    HW211621   5.635   1.688   7.670  1.2244  0.7260  0.9518
 3394SOL     OW11622   2.832   4.632   3.319  0.5702  0.0628  0.3758
 3394SOL    HW111623   2.922   4.633   3.287  0.1964  0.2102 -0.7077
 3394SOL    HW211624   2.817   4.540   3.343  1.2875  0.2029  1.4455
 3395SOL     OW11625   6.436   4.374   8.054 -0.3869 -0.3539  0.2802
 3395SOL    HW111626   6.405   4.415   7.973  0.1958  0.7979  0.6179
 3395SOL    HW211627   6.524   4.410   8.067 -0.9990  0.6236  2.1583
 3396SOL     OW11628   3.020   7.707   2.748  1.2696  0.0024 -0.8383
 3396SOL    HW111629   2.972   7.790   2.752  1.2295 -0.0446  2.1140
 3396SOL    HW211630   3.109   7.729   2.776  1.5679 -0.7899 -1.1328
 3397SOL     OW11631   3.718   2.396   2.421  0.1292 -0.6140  0.1900
 3397SOL    HW111632   3.757   2.413   2.506  1.5372  0.5467 -0.6349
 3397SOL    HW211633   3.776   2.330   2.381  1.9228  1.7230 -1.3761
 3398SOL     OW11634   5.654   3.743   4.945  0.4587 -0.6315 -0.7083
 3398SOL    HW111635   5.599   3.802   4.893  0.0473 -0.7137 -0.3697
 3398SOL    HW211636   5.592   3.681   4.984  0.8177 -0.8695 -0.5129
 3399SOL     OW11637   7.606   1.774  10.244  0.2131  0.0961  0.3242
 3399SOL    HW111638   7.689   1.745  10.207 -0.3740  0.4754 -1.4069
 3399SOL    HW211639   7.630   1.837  10.311  1.3817 -1.6583  1.6337
 3400SOL     OW11640   5.515   4.573   8.073  0.1980  0.0628  0.0367
 3400SOL    HW111641   5.503   4.614   7.987  3.5095 -2.5032 -1.9264
 3400SOL    HW211642   5.449   4.503   8.075  0.4254 -0.1876 -0.7028
 3401SOL     OW11643   7.135   4.366   4.374 -0.0512  0.1419  0.4248
 3401SOL    HW111644   7.157   4.410   4.292 -0.6708  0.2769  0.3267
 3401SOL    HW211645   7.216   4.367   4.424  1.3036 -2.7304 -1.4032
 3402SOL     OW11646   5.531   2.713   2.684  0.5929  0.2049 -0.2721
 3402SOL    HW111647   5.596   2.781   2.669  1.2086 -0.2889  0.1149
 3402SOL    HW211648   5.570   2.633   2.649  0.3519 -0.1687  0.2962
 3403SOL     OW11649   1.802   4.772   1.502 -0.0387 -0.2945  0.3740
 3403SOL    HW111650   1.775   4.690   1.462  0.0015  0.3012 -0.9380
 3403SOL    HW211651   1.865   4.809   1.441  0.2461  0.5246  1.1387
 3404SOL     OW11652   7.386   4.603   9.306 -0.2990 -0.3805 -0.3983
 3404SOL    HW111653   7.469   4.597   9.353 -0.1062 -2.3625 -0.9117
 3404SOL    HW211654   7.410   4.608   9.214 -0.7363  0.8970 -0.4632
 3405SOL     OW11655   5.288   4.654  11.703  0.0540 -0.0039 -0.0828
 3405SOL    HW111656   5.350   4.617  11.641  0.2163 -1.1736  0.7527
 3405SOL    HW211657   5.339   4.719  11.751  0.8504 -1.3731  1.0072
 3406SOL     OW11658   2.764   1.047   4.946 -0.1016  0.1343 -0.6616
 3406SOL    HW111659   2.783   1.139   4.966  1.2138 -0.1066 -0.7119
 3406SOL    HW211660   2.772   1.041   4.851  0.1809 -0.1105 -0.6223
 3407SOL     OW11661   6.726   4.766  10.003 -0.0434 -0.6590  0.4418
 3407SOL    HW111662   6.744   4.823  10.078 -0.8396 -0.0162  0.1607
 3407SOL    HW211663   6.666   4.816   9.949 -2.5971 -2.5832  1.2704
 3408SOL     OW11664   7.454   6.983   3.123 -0.4786  0.2421  0.3492
 3408SOL    HW111665   7.506   7.031   3.188 -0.7528 -0.1823  0.8904
 3408SOL    HW211666   7.406   7.051   3.076  1.4351  0.7581 -0.9711
 3409SOL     OW11667   0.876   4.477   8.785 -0.0103  0.2855 -0.2526
 3409SOL    HW111668   0.805   4.532   8.817 -0.2730  0.4495 -1.0833
 3409SOL    HW211669   0.861   4.391   8.825  0.9824  1.0338  1.8786
 3410SOL     OW11670   3.466   7.113   3.456 -0.4100  0.0852  0.1364
 3410SOL    HW111671   3.533   7.050   3.482  0.6484  0.7199 -0.9399
 3410SOL    HW211672   3.494   7.196   3.493  0.0422  0.5876 -1.2646
 3411SOL     OW11673   2.955   7.777   4.720  0.5482  0.1313 -0.1597
 3411SOL    HW111674   2.958   7.814   4.808  1.1846 -0.4980  0.0929
 3411SOL    HW211675   3.025   7.712   4.718  0.5493  0.1371 -1.1353
 3412SOL     OW11676   2.868   6.164  10.991  0.0473 -0.4274  0.5182
 3412SOL    HW111677   2.904   6.075  10.988  0.2383 -0.3382 -0.1964
 3412SOL    HW211678   2.775   6.152  11.006 -0.1487 -0.8268 -0.8128
 3413SOL     OW11679   3.747   7.360  11.497 -0.3665  0.4059  0.3737
 3413SOL    HW111680   3.770   7.332  11.585  1.0375  1.0547  0.2315
 3413SOL    HW211681   3.667   7.412  11.509 -1.4425 -1.3015  0.9632
 3414SOL     OW11682   5.627   5.640  10.098  0.1065  0.3151  0.3861
 3414SOL    HW111683   5.722   5.647  10.093  0.0948  0.4930  0.4283
 3414SOL    HW211684   5.598   5.635  10.007  0.2141 -0.4822  0.3832
 3415SOL     OW11685   5.971   1.755   5.993  0.0150 -0.1133 -0.8905
 3415SOL    HW111686   6.063   1.781   5.992  0.4443 -1.5616 -0.4361
 3415SOL    HW211687   5.945   1.755   5.901  0.2790  0.9084 -0.9769
 3416SOL     OW11688   3.151   4.178   7.264  0.7427 -0.3266  0.3990
 3416SOL    HW111689   3.188   4.101   7.220 -1.0905 -0.7745 -0.4590
 3416SOL    HW211690   3.159   4.159   7.357 -0.8133 -2.1928  0.2162
 3417SOL     OW11691   6.427   4.825  10.167 -0.1054  0.6797  0.2660
 3417SOL    HW111692   6.385   4.756  10.116  0.9924 -0.8627  1.3417
 3417SOL    HW211693   6.520   4.817  10.146  0.8001 -1.6022  4.0195
 3418SOL     OW11694   3.146   1.187   1.938  0.2864  0.4300  0.1171
 3418SOL    HW111695   3.105   1.238   1.868  0.7777  1.4662  0.5567
 3418SOL    HW211696   3.148   1.247   2.013  0.7478 -0.2931  0.6983
 3419SOL     OW11697   0.409   3.206   1.804 -0.8132 -0.2638 -0.2383
 3419SOL    HW111698   0.369   3.271   1.747  1.9911  0.2333 -1.7830
 3419SOL    HW211699   0.428   3.131   1.747  1.3884 -0.0390  0.1078
 3420SOL     OW11700   6.398   5.666  11.353  0.1284 -0.1955 -0.1815
 3420SOL    HW111701   6.484   5.700  11.377  0.8638 -0.7884 -1.8465
 3420SOL    HW211702   6.365   5.728  11.288 -0.8301  0.1516  0.6092
 3421SOL     OW11703   2.192   2.531   6.437  0.5159 -0.0835  0.0766
 3421SOL    HW111704   2.235   2.614   6.457 -1.4676  1.0353 -0.1383
 3421SOL    HW211705   2.137   2.514   6.513 -0.8532  0.0011 -0.8705
 3422SOL     OW11706   5.825   4.984  11.051 -0.6492  0.0458 -0.3881
 3422SOL    HW111707   5.804   5.075  11.074  0.4979  0.9063 -2.4625
 3422SOL    HW211708   5.740   4.942  11.040 -1.2047  0.4558  1.9490
 3423SOL     OW11709   5.613   0.742   1.015 -0.1156  0.0952  0.4895
 3423SOL    HW111710   5.647   0.653   1.026 -0.1015  0.2921  2.1820
 3423SOL    HW211711   5.583   0.744   0.924 -0.5894 -1.8092  0.5554
 3424SOL     OW11712   3.682   4.914   8.146  0.1007  0.1250 -0.1553
 3424SOL    HW111713   3.693   4.819   8.139 -0.9991  0.1028 -2.3845
 3424SOL    HW211714   3.656   4.928   8.238 -0.0188 -1.7629  0.1378
 3425SOL     OW11715   1.707   4.452  11.251  0.2750 -0.2157 -0.0016
 3425SOL    HW111716   1.636   4.427  11.311  1.5523 -0.1417  1.6204
 3425SOL    HW211717   1.783   4.405  11.284  0.8273 -1.0282 -2.2659
 3426SOL     OW11718   1.195   6.424   2.494 -0.3553  0.1688 -0.4653
 3426SOL    HW111719   1.170   6.333   2.477 -0.8039 -0.1420  1.6780
 3426SOL    HW211720   1.117   6.475   2.473 -0.0601  0.1148 -1.8031
 3427SOL     OW11721   6.078   3.901   8.456 -0.4932 -0.2474  1.0140
 3427SOL    HW111722   5.982   3.903   8.451 -0.5868 -0.5275  2.3579
 3427SOL    HW211723   6.102   3.820   8.411 -0.7900  0.3635 -0.3033
 3428SOL     OW11724   1.102   0.352   5.983  0.1076 -0.2702 -0.8211
 3428SOL    HW111725   1.153   0.420   6.026  0.7719 -1.2736  0.0273
 3428SOL    HW211726   1.166   0.296   5.941 -0.2995 -1.2890 -0.1266
 3429SOL     OW11727   2.701   4.290  11.589  0.1175 -0.3075 -0.0000
 3429SOL    HW111728   2.748   4.372  11.604 -0.6845  0.1410  0.1110
 3429SOL    HW211729   2.641   4.283  11.664 -1.3182  0.0899 -1.0767
 3430SOL     OW11730   2.663   4.287   3.790  0.5476  0.4311  0.2026
 3430SOL    HW111731   2.623   4.223   3.731  1.9619  0.9735 -1.4088
 3430SOL    HW211732   2.752   4.255   3.803  1.3815  2.1846 -0.8667
 3431SOL     OW11733   2.283   0.288   9.277 -0.2352  0.2579 -0.7509
 3431SOL    HW111734   2.297   0.328   9.191  0.4655  0.5829 -0.4943
 3431SOL    HW211735   2.279   0.363   9.337 -0.7841  0.0348 -0.5065
 3432SOL     OW11736   2.019   5.999   1.884 -0.0131 -0.0185 -0.2192
 3432SOL    HW111737   1.993   5.910   1.910 -0.1156  0.6245  2.1335
 3432SOL    HW211738   1.951   6.055   1.920 -0.1168  1.0146 -1.9714
 3433SOL     OW11739   1.137   5.669   4.302  0.3127 -0.4222  0.0245
 3433SOL    HW111740   1.142   5.574   4.288  0.5153 -0.1910 -1.6297
 3433SOL    HW211741   1.050   5.682   4.339 -0.7784 -1.0220 -2.1498
 3434SOL     OW11742   4.847   1.292   6.812 -0.7607  0.1284  0.0924
 3434SOL    HW111743   4.919   1.231   6.827 -0.1805  0.4790 -1.1261
 3434SOL    HW211744   4.771   1.236   6.795 -0.4060 -0.2603 -0.2416
 3435SOL     OW11745   5.988   1.078   6.737  0.5681  0.8116 -0.1751
 3435SOL    HW111746   6.056   1.143   6.755  0.6026  1.3599 -2.0734
 3435SOL    HW211747   5.927   1.086   6.811  0.7487  2.7874 -0.1813
 3436SOL     OW11748   5.179   4.424  11.029 -0.7641 -0.7708 -0.1978
 3436SOL    HW111749   5.258   4.478  11.037 -1.1089 -0.0931 -1.2167
 3436SOL    HW211750   5.132   4.438  11.111  0.0837 -1.0413  0.3444
 3437SOL     OW11751   3.778   3.243   0.592  0.4341 -0.0404 -0.1659
 3437SOL    HW111752   3.870   3.263   0.608  0.2908  0.3120  0.2005
 3437SOL    HW211753   3.733   3.327   0.597 -0.1703 -0.4302  1.4144
 3438SOL     OW11754   1.276   7.662   2.447  0.1827  0.1493 -0.5287
 3438SOL    HW111755   1.339   7.680   2.517  1.2527 -0.4538 -1.3013
 3438SOL    HW211756   1.247   7.572   2.463  0.9229 -0.2241 -1.2018
 3439SOL     OW11757   6.687   0.726   4.981 -0.3131 -0.3488 -0.7366
 3439SOL    HW111758   6.690   0.684   5.067  1.2479 -0.9912 -1.0652
 3439SOL    HW211759   6.608   0.689   4.940 -1.4056  0.4042  0.5894
 3440SOL     OW11760   0.425   1.334   8.395  0.0156  0.4960  0.1778
 3440SOL    HW111761   0.502   1.291   8.359 -0.8344 -0.0503 -1.0570
 3440SOL    HW211762   0.454   1.370   8.479  0.9762 -1.7507  0.8631
 3441SOL     OW11763   6.171   7.311   3.341 -0.1605  0.5704  0.3143
 3441SOL    HW111764   6.195   7.219   3.355 -0.7306  0.4972  0.9208
 3441SOL    HW211765   6.254   7.358   3.336  0.1619 -0.0863 -0.8688
 3442SOL     OW11766   2.820   0.484   0.123 -0.5512 -0.0578 -0.2207
 3442SOL    HW111767   2.755   0.500   0.055 -0.5218  3.5270  0.3887
 3442SOL    HW211768   2.781   0.519   0.203  0.9850 -0.4660  0.7651
 3443SOL     OW11769   0.364   5.528   8.279  0.2201  1.0092 -0.4886
 3443SOL    HW111770   0.272   5.526   8.253  0.9023  0.4639 -3.2094
 3443SOL    HW211771   0.362   5.528   8.375 -2.5757 -2.0557 -0.3673
 3444SOL     OW11772   0.729   5.931   2.390  0.1226  0.3943  0.4304
 3444SOL    HW111773   0.657   5.975   2.345 -0.0634  0.9379  1.2365
 3444SOL    HW211774   0.692   5.907   2.475  0.0308 -1.8604 -0.1833
 3445SOL     OW11775   7.183   3.321   5.800  0.6866  0.0016 -0.0615
 3445SOL    HW111776   7.245   3.271   5.852 -0.0273 -1.0268 -0.1815
 3445SOL    HW211777   7.100   3.274   5.809 -0.0959  1.3268  0.0853
 3446SOL     OW11778   7.751   5.604   8.262 -0.2177 -0.1336 -0.7498
 3446SOL    HW111779   7.802   5.682   8.238  0.8241 -0.1946  1.0718
 3446SOL    HW211780   7.761   5.545   8.187 -2.4380  2.0442 -2.9565
 3447SOL     OW11781   3.672   1.623   8.893 -0.6879 -0.1563  0.2799
 3447SOL    HW111782   3.726   1.545   8.902  0.5728  0.6727  0.2634
 3447SOL    HW211783   3.669   1.661   8.981  1.3327  1.3801 -0.2097
 3448SOL     OW11784   7.518   2.720   4.246  0.0090  0.1501  0.4579
 3448SOL    HW111785   7.487   2.811   4.245  0.8890  0.4723 -0.9187
 3448SOL    HW211786   7.445   2.670   4.281 -0.6748  1.3312  0.7732
 3449SOL     OW11787   2.567   7.361   0.003 -0.0018 -0.0620 -0.6683
 3449SOL    HW111788   2.561   7.312   0.085  1.5813 -0.5637 -0.8188
 3449SOL    HW211789   2.476   7.380  -0.020 -0.5261 -0.8206  0.6537
 3450SOL     OW11790   7.253   3.883  10.502  0.4577 -0.0486  0.4411
 3450SOL    HW111791   7.195   3.881  10.425 -1.2850  0.2089  1.6869
 3450SOL    HW211792   7.306   3.962  10.489  1.3004 -0.8440 -1.2307
 3451SOL     OW11793   3.881   1.933   3.472 -0.0774 -0.0259  0.1583
 3451SOL    HW111794   3.808   1.991   3.492  0.5179  0.7298  0.1926
 3451SOL    HW211795   3.941   1.987   3.420  0.5632 -0.5647  0.3200
 3452SOL     OW11796   3.108   4.189   1.384  0.0855  0.2907 -0.1501
 3452SOL    HW111797   3.135   4.243   1.458 -0.7745  1.7548 -0.8543
 3452SOL    HW211798   3.111   4.099   1.417  0.6889  0.8332  1.3370
 3453SOL     OW11799   5.013   6.723   0.025 -0.2600 -0.4282 -0.3925
 3453SOL    HW111800   4.961   6.752  -0.049  0.4968  0.4724 -0.5926
 3453SOL    HW211801   4.958   6.738   0.102 -0.0714  1.0943 -0.5415
 3454SOL     OW11802   0.592   2.539  11.632 -0.5875 -0.4334  0.6936
 3454SOL    HW111803   0.513   2.564  11.680  1.2632  2.4952  2.4839
 3454SOL    HW211804   0.646   2.493  11.696 -0.5149 -1.9128 -0.3611
 3455SOL     OW11805   0.811   3.048  11.644 -0.2284  0.0348  0.4155
 3455SOL    HW111806   0.894   3.044  11.596 -0.8210  1.7247 -0.8768
 3455SOL    HW211807   0.745   3.021  11.580 -0.7721 -0.5390  1.1968
 3456SOL     OW11808   7.374   3.071   5.832 -0.5662 -0.0113  0.0311
 3456SOL    HW111809   7.283   3.045   5.815  0.2563 -2.4937 -1.2284
 3456SOL    HW211810   7.412   3.082   5.744  0.3469  1.0235  0.5371
 3457SOL     OW11811   6.342   1.559   5.773 -0.6759 -0.3288  0.1556
 3457SOL    HW111812   6.410   1.496   5.794 -0.9110 -1.0472 -1.0969
 3457SOL    HW211813   6.306   1.586   5.858 -0.8651 -2.2262  0.7203
 3458SOL     OW11814   0.409   4.983   6.595 -0.0183 -0.2690 -0.5777
 3458SOL    HW111815   0.341   4.916   6.586  0.0913 -0.5033  0.3059
 3458SOL    HW211816   0.372   5.046   6.657  0.3570 -0.1149 -0.5097
 3459SOL     OW11817   6.910   5.174   0.596 -0.1541 -0.0289  0.1103
 3459SOL    HW111818   6.992   5.126   0.590 -0.3027 -0.2800  0.0922
 3459SOL    HW211819   6.914   5.218   0.681 -0.1335 -0.2801  0.2399
 3460SOL     OW11820   2.119   2.583  11.228 -0.3032 -0.4378 -0.0994
 3460SOL    HW111821   2.036   2.567  11.183  0.2984 -2.1574 -0.6778
 3460SOL    HW211822   2.178   2.615  11.159  0.4453 -2.4806 -0.4586
 3461SOL     OW11823   4.410   6.044  12.032  0.2582  0.3930 -0.4696
 3461SOL    HW111824   4.352   6.063  11.959 -1.1599 -1.0629  0.2249
 3461SOL    HW211825   4.447   6.129  12.056 -0.4787  1.1258 -1.8342
 3462SOL     OW11826   1.602   1.282  11.176 -0.0323 -0.0401  0.0518
 3462SOL    HW111827   1.560   1.342  11.114  1.5026  1.1018  0.0491
 3462SOL    HW211828   1.617   1.336  11.254 -0.4072 -0.9930  0.8045
 3463SOL     OW11829   5.020   3.854   5.832 -0.7703 -0.1385 -0.7354
 3463SOL    HW111830   5.043   3.930   5.886 -0.7287 -0.4738 -0.2778
 3463SOL    HW211831   4.932   3.830   5.861 -0.2018 -1.1898  0.1930
 3464SOL     OW11832   3.690   5.964   6.584  0.2839  0.0719  0.6223
 3464SOL    HW111833   3.643   5.916   6.515 -0.5263 -0.1806  1.3316
 3464SOL    HW211834   3.769   5.996   6.541  0.9634 -2.0419  0.1546
 3465SOL     OW11835   7.306   3.792   5.207 -0.0001 -0.0214  0.1972
 3465SOL    HW111836   7.311   3.871   5.152 -1.1382  1.4780  2.1024
 3465SOL    HW211837   7.296   3.826   5.296  3.0253 -2.3004  1.6053
 3466SOL     OW11838   6.333   6.266   3.261 -0.0998  0.4439 -0.9124
 3466SOL    HW111839   6.307   6.351   3.296  0.0274  0.7359 -1.5149
 3466SOL    HW211840   6.407   6.239   3.316  0.4910  1.1776 -1.3322
 3467SOL     OW11841   7.409   4.214   1.159  0.5192  0.4304 -0.1193
 3467SOL    HW111842   7.353   4.288   1.185 -0.0975  0.1665 -0.6629
 3467SOL    HW211843   7.383   4.196   1.068  0.4577 -0.6444  0.1005
 3468SOL     OW11844   5.434   4.247   7.023  0.0153 -0.0726  0.5655
 3468SOL    HW111845   5.379   4.314   7.062 -0.6395  0.2260 -0.8127
 3468SOL    HW211846   5.465   4.195   7.097 -0.2481  1.1507  1.5670
 3469SOL     OW11847   0.598   1.384  11.584 -0.0901  0.0137 -0.2576
 3469SOL    HW111848   0.643   1.466  11.608  0.2022 -0.1978 -0.0654
 3469SOL    HW211849   0.513   1.412  11.551  0.9799  0.6058 -2.7712
 3470SOL     OW11850   6.981   2.640   3.520 -0.4490  0.1144  0.1932
 3470SOL    HW111851   6.896   2.613   3.552 -0.8959  1.0125 -0.1933
 3470SOL    HW211852   7.019   2.692   3.591 -0.2842 -0.1611  0.3080
 3471SOL     OW11853   2.491   4.981   3.209 -0.4554 -0.2705 -0.1983
 3471SOL    HW111854   2.559   4.924   3.244  0.1655 -1.3430 -2.9160
 3471SOL    HW211855   2.431   4.994   3.283  1.1090 -1.7333  1.4393
 3472SOL     OW11856   6.814   1.509  10.201  0.3814  0.2538  0.9027
 3472SOL    HW111857   6.884   1.510  10.265 -0.0366 -0.0454  1.3694
 3472SOL    HW211858   6.782   1.599  10.198 -0.2793  0.0616  1.8759
 3473SOL     OW11859   1.208   4.217   3.483 -0.5060 -0.1710  0.0918
 3473SOL    HW111860   1.259   4.142   3.514 -0.4673  0.1052  0.7259
 3473SOL    HW211861   1.254   4.246   3.404 -1.3478 -1.6800 -0.9871
 3474SOL     OW11862   1.052   3.128   3.115  0.3445 -0.8965 -0.7346
 3474SOL    HW111863   1.114   3.190   3.154  0.4273  0.4335 -2.7862
 3474SOL    HW211864   1.088   3.111   3.028 -0.6385 -2.4742 -0.8667
 3475SOL     OW11865   4.636   6.434  11.665  0.0212  0.5220 -0.1277
 3475SOL    HW111866   4.582   6.370  11.711  0.0773  0.6483  0.1172
 3475SOL    HW211867   4.579   6.468  11.595 -0.3297  0.8848  0.3245
 3476SOL     OW11868   2.499   1.489   7.210 -0.3168 -0.5605 -0.9404
 3476SOL    HW111869   2.427   1.514   7.267 -0.6556  0.0328 -1.6173
 3476SOL    HW211870   2.484   1.538   7.129  2.4425  1.9630 -0.1071
 3477SOL     OW11871   6.121   3.928  12.164 -0.1445  0.3611  0.3234
 3477SOL    HW111872   6.176   3.940  12.242 -0.0817 -0.6690  0.4542
 3477SOL    HW211873   6.181   3.934  12.090 -0.1755  1.1647  0.3547
 3478SOL     OW11874   5.306   7.541   1.959 -0.2544 -0.0659 -0.1322
 3478SOL    HW111875   5.342   7.603   1.896 -0.8136 -0.0836 -0.4650
 3478SOL    HW211876   5.381   7.485   1.982  0.3102  0.8578  0.3380
 3479SOL     OW11877   1.165   5.993   6.089 -0.7996 -0.4813 -0.1886
 3479SOL    HW111878   1.117   6.067   6.126 -1.9776 -1.3792  0.1254
 3479SOL    HW211879   1.227   5.968   6.158 -2.6079 -1.7972  1.0431
 3480SOL     OW11880   6.607   0.338   9.338  0.1245 -0.0168  0.3569
 3480SOL    HW111881   6.679   0.365   9.396 -1.0312  0.8958  1.4285
 3480SOL    HW211882   6.619   0.391   9.259  1.4154 -0.8879 -0.0542
 3481SOL     OW11883   0.866   6.101   6.709  0.0847  0.3501 -0.3465
 3481SOL    HW111884   0.808   6.092   6.634  1.9466  1.3403 -1.9768
 3481SOL    HW211885   0.841   6.028   6.767 -1.3862 -0.4491 -1.8871
 3482SOL     OW11886   0.304   1.755  10.092 -0.0493  0.9802  0.3984
 3482SOL    HW111887   0.303   1.719  10.004 -1.3684 -0.5932  1.0097
 3482SOL    HW211888   0.397   1.763  10.114  0.3240 -1.7610  0.0640
 3483SOL     OW11889   3.107   1.865   3.108  0.1139 -0.4068 -0.3121
 3483SOL    HW111890   3.040   1.915   3.155  1.0250  0.1121  0.4693
 3483SOL    HW211891   3.057   1.802   3.055 -1.0936  1.6980 -1.8262
 3484SOL     OW11892   1.033   0.327  12.084  0.1334 -0.9341  0.0633
 3484SOL    HW111893   1.090   0.317  12.161  1.3751 -0.1633 -0.7231
 3484SOL    HW211894   1.067   0.263  12.021 -0.4546 -1.1037 -0.0829
 3485SOL     OW11895   3.300   2.129   1.434 -0.0556  0.0533 -0.5270
 3485SOL    HW111896   3.362   2.076   1.486  1.0294  0.2116 -1.6223
 3485SOL    HW211897   3.230   2.150   1.496 -0.6582 -2.8417 -0.0830
 3486SOL     OW11898   6.677   6.325  12.158 -0.1052 -0.4258 -0.4144
 3486SOL    HW111899   6.693   6.390  12.227 -0.9877 -0.7306  0.0878
 3486SOL    HW211900   6.744   6.258  12.173  0.9062  0.4033 -1.0195
 3487SOL     OW11901   6.181   0.725   4.860  0.2738 -0.5754  0.2993
 3487SOL    HW111902   6.207   0.814   4.837  0.3541 -0.8593 -0.7776
 3487SOL    HW211903   6.101   0.735   4.911 -0.7567  0.0547 -1.3455
 3488SOL     OW11904   1.935   5.450   3.982 -0.3637 -0.1036  0.3564
 3488SOL    HW111905   1.879   5.467   4.058  0.7932 -1.0438  1.4717
 3488SOL    HW211906   2.007   5.512   3.991  0.7276 -1.3965  1.1034
 3489SOL     OW11907   4.673   3.665   9.769 -0.3187 -0.4469 -0.2991
 3489SOL    HW111908   4.687   3.701   9.857  0.9013 -1.1923 -0.1729
 3489SOL    HW211909   4.657   3.742   9.715 -0.2983  0.0859  0.4241
 3490SOL     OW11910   1.874   5.636  11.097  0.3235  0.4518 -0.1620
 3490SOL    HW111911   1.779   5.647  11.095 -0.0288 -1.8937  0.3386
 3490SOL    HW211912   1.893   5.612  11.188  1.0973 -1.0502 -0.6875
 3491SOL     OW11913   7.898   7.661   1.766  0.1563  0.6105  0.2414
 3491SOL    HW111914   7.836   7.733   1.762  0.5197  0.9324  0.3077
 3491SOL    HW211915   7.946   7.665   1.684 -1.3051 -0.9318 -0.7508
 3492SOL     OW11916   3.873   7.883   3.563 -0.7129 -0.6706  0.2203
 3492SOL    HW111917   3.943   7.850   3.619 -0.4795 -0.4248  0.0756
 3492SOL    HW211918   3.905   7.874   3.474  0.4915  2.3259  0.2277
 3493SOL     OW11919   5.399   0.767  10.895  0.3382  1.1804 -0.2222
 3493SOL    HW111920   5.419   0.854  10.928 -1.6162  1.6644 -0.1528
 3493SOL    HW211921   5.303   0.761  10.900  0.3257 -0.4815 -1.4365
 3494SOL     OW11922   4.289   5.832   1.602  0.3681  0.3518 -0.8461
 3494SOL    HW111923   4.243   5.841   1.519  0.3189 -1.2614 -1.0180
 3494SOL    HW211924   4.220   5.825   1.668  0.2884 -2.2910 -1.1278
 3495SOL     OW11925   4.735   7.321   9.107  0.5341  0.5834  0.1645
 3495SOL    HW111926   4.821   7.307   9.067  0.4435  1.2745 -0.2886
 3495SOL    HW211927   4.749   7.395   9.167  0.3883  0.3136  0.5369
 3496SOL     OW11928   7.014   6.139   9.768  0.0557 -0.4032 -0.0241
 3496SOL    HW111929   6.945   6.136   9.702  0.4617 -0.6100 -0.4486
 3496SOL    HW211930   7.002   6.060   9.819  0.2584 -0.6727 -0.3894
 3497SOL     OW11931   2.424   7.146   7.987 -0.2265  0.1451 -0.0887
 3497SOL    HW111932   2.500   7.201   7.970 -0.9371  1.2227  0.1491
 3497SOL    HW211933   2.372   7.151   7.906 -0.9835  0.9805  0.4341
 3498SOL     OW11934   3.733   3.492   1.871 -0.5345  0.1282  0.1313
 3498SOL    HW111935   3.810   3.521   1.919  0.3282 -0.2712 -0.9893
 3498SOL    HW211936   3.660   3.508   1.932  0.4290  0.3521  1.2639
 3499SOL     OW11937   7.914   4.366   8.507 -0.6483  0.4481  0.0853
 3499SOL    HW111938   7.985   4.311   8.474  0.2669  0.7532  1.4603
 3499SOL    HW211939   7.834   4.321   8.480  0.0335 -2.1756  2.0096
 3500SOL     OW11940   7.427   5.811  11.546  0.0036 -0.5314 -0.5282
 3500SOL    HW111941   7.433   5.800  11.451  1.0915 -0.1590 -0.5221
 3500SOL    HW211942   7.344   5.856  11.560  0.0003 -0.2721 -1.3381
 3501SOL     OW11943   4.978   5.089   3.509  0.4120  0.1157  0.5942
 3501SOL    HW111944   5.039   5.154   3.545  0.2824 -0.2640  1.5189
 3501SOL    HW211945   5.032   5.036   3.451  1.1763 -0.7063  1.9928
 3502SOL     OW11946   2.751   2.439   6.658 -0.8103  0.2613  0.3152
 3502SOL    HW111947   2.711   2.388   6.587 -1.5619 -0.5340  1.2783
 3502SOL    HW211948   2.761   2.527   6.622 -2.4592  0.2165 -0.3251
 3503SOL     OW11949   6.637   3.395   3.888 -0.1373  0.1315 -0.2551
 3503SOL    HW111950   6.609   3.445   3.965  0.7551 -0.1783  0.2905
 3503SOL    HW211951   6.730   3.377   3.904  0.2192  0.5664 -1.6962
 3504SOL     OW11952   5.791   4.368   6.479 -0.6382  0.4421 -0.0148
 3504SOL    HW111953   5.731   4.313   6.428 -1.1591  1.7210 -0.8376
 3504SOL    HW211954   5.743   4.389   6.559 -0.9309  0.7220 -0.2638
 3505SOL     OW11955   5.408   2.014   6.253 -0.0750  0.1025 -0.0500
 3505SOL    HW111956   5.444   2.102   6.244 -0.2756  0.2120  0.2167
 3505SOL    HW211957   5.314   2.028   6.262  0.1407  0.0860  3.3133
 3506SOL     OW11958   7.264   5.021  11.141  0.4431  0.6597  0.2443
 3506SOL    HW111959   7.205   5.043  11.213 -2.0864  0.1989 -1.5525
 3506SOL    HW211960   7.276   5.104  11.094  1.1208  0.7182  0.5112
 3507SOL     OW11961   5.120   4.079   0.600  0.1772 -0.3365  0.4532
 3507SOL    HW111962   5.078   4.080   0.514 -1.9938 -1.3139  1.4171
 3507SOL    HW211963   5.122   4.172   0.626 -1.5355 -0.2399  0.3850
 3508SOL     OW11964   7.640   6.440  11.798  0.0377  0.3143  0.4137
 3508SOL    HW111965   7.615   6.532  11.800 -0.6692  0.2285 -1.7692
 3508SOL    HW211966   7.590   6.400  11.869  0.5518  1.6221  1.5578
 3509SOL     OW11967   5.102   0.910   1.690 -0.2065 -0.7217  0.3689
 3509SOL    HW111968   5.076   0.866   1.609  0.2751 -0.4354  0.0494
 3509SOL    HW211969   5.027   0.965   1.713 -0.4666 -1.0399  0.2894
 3510SOL     OW11970   0.687   4.427   8.552 -0.7053  0.6118 -0.1023
 3510SOL    HW111971   0.657   4.375   8.627  1.8254  0.9919  1.2823
 3510SOL    HW211972   0.630   4.505   8.554 -2.6838 -0.7575 -0.5058
 3511SOL     OW11973   7.803   2.745   7.008 -0.0611 -0.2842 -0.3977
 3511SOL    HW111974   7.767   2.657   7.023  0.3124 -0.5104 -0.7933
 3511SOL    HW211975   7.816   2.750   6.913  0.3709  0.0182 -0.3278
 3512SOL     OW11976   6.969   2.588   9.499 -0.3424 -0.1987 -0.1493
 3512SOL    HW111977   7.018   2.531   9.440  0.0745  0.1169 -0.1140
 3512SOL    HW211978   6.987   2.554   9.587  0.3141  0.2871 -0.0900
 3513SOL     OW11979   5.029   7.008   5.463  0.3207 -0.0040  0.0424
 3513SOL    HW111980   5.016   7.088   5.514  0.1111 -0.2487  0.3773
 3513SOL    HW211981   5.009   7.033   5.372  1.8267  0.7237 -0.1042
 3514SOL     OW11982   2.335   5.413   5.288  0.5452 -0.8194 -0.1234
 3514SOL    HW111983   2.307   5.431   5.378  0.5228 -0.4183 -0.2097
 3514SOL    HW211984   2.314   5.320   5.275  0.3491 -0.8251  0.2094
 3515SOL     OW11985   1.715   0.106   8.616  0.5023  0.3225 -0.6255
 3515SOL    HW111986   1.626   0.102   8.582  0.5190 -0.0732 -0.6240
 3515SOL    HW211987   1.708   0.162   8.694  0.0597 -0.5381 -0.0325
 3516SOL     OW11988   5.467   4.784   4.047 -0.1541  0.5036 -0.2707
 3516SOL    HW111989   5.371   4.784   4.041 -0.2609 -0.2452  0.9509
 3516SOL    HW211990   5.495   4.858   3.994 -1.3637  0.2276 -1.3480
 3517SOL     OW11991   4.317   6.561   0.937 -0.0485 -0.6054 -0.9439
 3517SOL    HW111992   4.290   6.478   0.898  2.5207 -1.4419 -1.1836
 3517SOL    HW211993   4.325   6.542   1.030 -0.3457 -0.3495 -0.8642
 3518SOL     OW11994   0.355   2.253   8.992 -0.2384  0.1505  0.5706
 3518SOL    HW111995   0.302   2.191   8.941  0.4909 -0.0185 -0.0140
 3518SOL    HW211996   0.349   2.222   9.082  1.3784 -1.7670  0.0949
 3519SOL     OW11997   5.094   4.805   8.959 -0.9615  0.4520  0.0027
 3519SOL    HW111998   5.188   4.810   8.974 -0.5412  0.7881 -2.3861
 3519SOL    HW211999   5.085   4.760   8.875 -2.8886  1.0823 -0.1855
 3520SOL     OW12000   5.652   6.809   0.308 -0.2820  0.5572  0.5855
 3520SOL    HW112001   5.609   6.768   0.233  0.3931  1.1103 -0.1198
 3520SOL    HW212002   5.589   6.800   0.379 -1.3533  0.9053 -0.2916
 3521SOL     OW12003   6.111   2.993  10.802  0.2706 -0.1890  0.0128
 3521SOL    HW112004   6.181   2.928  10.796 -0.1515 -0.7563  0.9890
 3521SOL    HW212005   6.157   3.077  10.808  0.8544 -0.4985 -0.0278
 3522SOL     OW12006   0.535   0.289   4.474  0.2036 -0.4365  0.2693
 3522SOL    HW112007   0.580   0.373   4.468  1.2674 -1.0022  0.2059
 3522SOL    HW212008   0.549   0.248   4.389 -0.9671 -0.3729  0.0203
 3523SOL     OW12009   7.080   7.348   1.764 -0.0914 -0.0655  0.0654
 3523SOL    HW112010   7.173   7.337   1.745 -0.4811 -0.1301 -2.0635
 3523SOL    HW212011   7.049   7.259   1.783  0.3854  0.0444  1.4481
 3524SOL     OW12012   3.736   1.590   6.713 -0.1745  0.2384  0.0946
 3524SOL    HW112013   3.690   1.554   6.788  0.2943  0.7572  0.6413
 3524SOL    HW212014   3.820   1.545   6.712 -0.5388 -0.4575 -0.6962
 3525SOL     OW12015   6.846   6.047   6.852  0.0897 -0.1239  0.6992
 3525SOL    HW112016   6.754   6.024   6.863 -0.5111  0.6783 -1.9046
 3525SOL    HW212017   6.856   6.131   6.897 -0.9513  0.6785 -0.5096
 3526SOL     OW12018   5.916   0.462   7.198 -0.2533 -0.1465 -0.1017
 3526SOL    HW112019   5.886   0.503   7.117  0.9984 -2.8957 -2.1122
 3526SOL    HW212020   6.004   0.498   7.212 -0.5494  0.4844  0.2101
 3527SOL     OW12021   3.937   4.076   9.717  0.0139 -0.0888 -0.2837
 3527SOL    HW112022   3.876   4.025   9.664 -0.3771  1.1438 -1.0664
 3527SOL    HW212023   3.987   4.011   9.765 -1.2006 -1.1701 -0.4162
 3528SOL     OW12024   6.518   3.751   2.250  0.0410 -0.2858 -0.2195
 3528SOL    HW112025   6.461   3.786   2.319  0.6335  1.3890 -0.5347
 3528SOL    HW212026   6.600   3.732   2.296 -0.2720 -1.2749 -0.0543
 3529SOL     OW12027   4.946   5.595  12.410  0.3101 -0.5036  0.0021
 3529SOL    HW112028   4.961   5.521  12.351 -0.6549 -0.7942  0.0978
 3529SOL    HW212029   5.032   5.634  12.423  0.5786 -0.6404 -1.3232
 3530SOL     OW12030   4.971   2.055   7.337  0.4957  0.1584  0.0723
 3530SOL    HW112031   4.892   2.098   7.370  0.6948 -0.0493  0.8396
 3530SOL    HW212032   4.956   2.047   7.243 -0.7347 -0.5606  0.3054
 3531SOL     OW12033   3.464   7.935   5.956 -0.2190 -0.3709  0.0419
 3531SOL    HW112034   3.460   8.016   5.906 -0.4756 -1.0575 -1.0882
 3531SOL    HW212035   3.473   7.866   5.890  0.0345 -1.2659  0.9741
 3532SOL     OW12036   3.243   6.746   3.867 -0.0841 -0.0309 -0.5405
 3532SOL    HW112037   3.236   6.788   3.781 -0.9874  0.3066 -0.3159
 3532SOL    HW212038   3.247   6.820   3.929 -1.2559 -0.2461 -0.1725
 3533SOL     OW12039   6.431   1.129   9.556  0.0962  0.2748  0.5444
 3533SOL    HW112040   6.480   1.176   9.488  1.2898 -0.1556  1.0662
 3533SOL    HW212041   6.396   1.052   9.512 -1.8660  1.5886 -0.3177
 3534SOL     OW12042   6.630   5.881   6.037  0.2312 -0.1901 -0.0166
 3534SOL    HW112043   6.683   5.815   6.082  0.6929  0.4153  0.3522
 3534SOL    HW212044   6.691   5.923   5.976  0.0795  0.2321  0.1161
 3535SOL     OW12045   4.106   5.371   5.714  0.3449  0.9495  0.0508
 3535SOL    HW112046   4.052   5.450   5.722 -0.7965  0.2779 -0.6947
 3535SOL    HW212047   4.051   5.301   5.748  1.0623  0.3584  0.0061
 3536SOL     OW12048   0.609   3.367   7.238 -0.5652 -0.2437 -1.0097
 3536SOL    HW112049   0.565   3.293   7.199  0.1469 -0.7713 -0.8320
 3536SOL    HW212050   0.691   3.375   7.190 -0.9969  0.9519 -1.5813
 3537SOL     OW12051   6.395   7.368   2.469 -0.8078  0.3273 -0.3341
 3537SOL    HW112052   6.442   7.284   2.459 -2.2406 -0.4063 -1.1745
 3537SOL    HW212053   6.317   7.358   2.415 -0.8590  2.3439 -0.6806
 3538SOL     OW12054   6.358   1.120  12.020 -0.3100 -0.0883  0.2490
 3538SOL    HW112055   6.379   1.140  11.929 -0.1321  1.3457  0.5763
 3538SOL    HW212056   6.440   1.136  12.067 -0.5148 -0.3941  0.7135
 3539SOL     OW12057   2.398   2.955   3.933  0.1461 -0.7826  0.4938
 3539SOL    HW112058   2.491   2.930   3.933  0.5288  0.5158  0.4737
 3539SOL    HW212059   2.378   2.976   3.842 -0.2992 -1.4772  0.4270
 3540SOL     OW12060   5.694   2.900  10.333  0.4499  0.0135  0.8121
 3540SOL    HW112061   5.657   2.825  10.379  3.1640 -0.1510  3.0125
 3540SOL    HW212062   5.754   2.862  10.269  0.2920  0.2928  0.4934
 3541SOL     OW12063   5.942   1.742   0.560 -0.0284 -0.0659 -0.3330
 3541SOL    HW112064   5.883   1.677   0.522 -0.1296  0.9761 -2.0878
 3541SOL    HW212065   6.028   1.701   0.559 -0.4117 -0.9285  0.5651
 3542SOL     OW12066   4.389   1.396   7.474 -0.0303  0.3020 -0.0271
 3542SOL    HW112067   4.465   1.347   7.442 -0.9787 -0.6469 -0.9504
 3542SOL    HW212068   4.357   1.444   7.397 -0.7394  0.1542  0.1616
 3543SOL     OW12069   1.031   4.297   9.826  0.1282 -0.6244  0.1909
 3543SOL    HW112070   1.056   4.216   9.780 -2.9932 -1.6845  0.0972
 3543SOL    HW212071   1.002   4.356   9.756 -0.1994 -0.4734  0.4492
 3544SOL     OW12072   6.333   0.461   5.310 -0.0339 -0.0969 -0.3489
 3544SOL    HW112073   6.256   0.505   5.276 -0.7057  0.5896  1.8687
 3544SOL    HW212074   6.303   0.372   5.330  0.3017 -0.4358 -1.3216
 3545SOL     OW12075   4.530   6.998   1.708  0.1422 -0.4574 -0.1181
 3545SOL    HW112076   4.484   7.004   1.624  1.0066  0.6623 -0.5410
 3545SOL    HW212077   4.463   7.013   1.774 -0.1953  0.7133 -0.7079
 3546SOL     OW12078   2.236   3.241   8.478 -0.5618  0.8218 -0.1152
 3546SOL    HW112079   2.300   3.170   8.487 -0.0788  1.3717  0.9086
 3546SOL    HW212080   2.154   3.196   8.453 -0.2078 -0.0665  0.2839
 3547SOL     OW12081   0.139   6.696  10.235 -0.2616 -0.1935 -0.1587
 3547SOL    HW112082   0.172   6.637  10.167  1.6009 -0.5571  0.9716
 3547SOL    HW212083   0.164   6.783  10.206 -0.4602 -0.2401 -0.4665
 3548SOL     OW12084   5.610   3.370   9.176 -0.4559 -0.1559  0.0156
 3548SOL    HW112085   5.614   3.463   9.153  1.7039  0.1035  1.1308
 3548SOL    HW212086   5.698   3.350   9.209 -0.5732 -2.8482 -1.0550
 3549SOL     OW12087   5.085   0.151  10.023  0.4293  0.0842  0.0124
 3549SOL    HW112088   5.079   0.162  10.118  2.2020  0.4638  0.1342
 3549SOL    HW212089   5.154   0.086  10.011  1.7140  1.5424 -1.0068
 3550SOL     OW12090   1.893   6.803   4.734 -0.6053 -0.2957  0.1245
 3550SOL    HW112091   1.917   6.747   4.808  0.7129 -2.4529 -1.8076
 3550SOL    HW212092   1.977   6.822   4.691 -0.9844  3.2470  0.6431
 3551SOL     OW12093   2.766   0.154   0.038  0.2785 -0.2945 -0.1925
 3551SOL    HW112094   2.843   0.210   0.023 -0.1559  0.4062  0.1529
 3551SOL    HW212095   2.697   0.215   0.064 -0.3960 -0.9237 -0.4915
 3552SOL     OW12096   6.464   2.163   8.799 -0.1054 -0.0821  0.1959
 3552SOL    HW112097   6.486   2.255   8.812  2.4717 -0.6810  0.7380
 3552SOL    HW212098   6.405   2.142   8.871 -1.5991  1.3763 -0.5653
 3553SOL     OW12099   1.691   5.709  10.167  0.0606  0.1499 -0.2744
 3553SOL    HW112100   1.663   5.799  10.149  0.2888  0.6727  1.7033
 3553SOL    HW212101   1.786   5.716  10.179 -0.1709  0.1188  2.0751
 3554SOL     OW12102   0.509   6.575   8.331  0.4627 -0.0438  0.0176
 3554SOL    HW112103   0.475   6.664   8.318 -3.8799 -1.7075 -1.7263
 3554SOL    HW212104   0.513   6.538   8.243  2.4737 -1.5614  0.6829
 3555SOL     OW12105   2.639   5.092   8.695 -0.5053 -0.1295 -0.2257
 3555SOL    HW112106   2.584   5.074   8.771 -0.3280 -0.3454 -0.1462
 3555SOL    HW212107   2.728   5.092   8.730 -0.3177 -1.5183 -0.6564
 3556SOL     OW12108   6.943   1.352  12.358  0.2668  0.0288 -0.3118
 3556SOL    HW112109   6.868   1.365  12.300  0.6088  0.1684 -0.7265
 3556SOL    HW212110   6.915   1.282  12.417 -1.5462  2.4118  1.8581
 3557SOL     OW12111   2.039   6.624  11.761 -0.6938  0.1511  0.4716
 3557SOL    HW112112   2.093   6.595  11.688 -1.2275  1.3498 -0.4425
 3557SOL    HW212113   1.953   6.585  11.744 -0.8138  0.4129  0.4716
 3558SOL     OW12114   5.641   2.118   7.690 -0.1764 -0.2528  0.1581
 3558SOL    HW112115   5.717   2.154   7.735 -0.5497 -0.5082  1.0086
 3558SOL    HW212116   5.573   2.185   7.698 -0.6656 -0.8467  1.1729
 3559SOL     OW12117   6.676   2.305   3.943 -0.5366  1.0890  0.5080
 3559SOL    HW112118   6.650   2.238   3.880 -0.1256  0.9503  0.4796
 3559SOL    HW212119   6.619   2.379   3.924 -0.1297  1.2087 -0.3320
 3560SOL     OW12120   3.483   2.500   8.463  0.1421 -0.3765 -0.1909
 3560SOL    HW112121   3.548   2.565   8.489 -0.3442  0.0510 -0.0284
 3560SOL    HW212122   3.493   2.429   8.527  2.2377 -1.5298 -1.7183
 3561SOL     OW12123   7.195   4.360   0.611 -0.2470  0.6513  0.1681
 3561SOL    HW112124   7.140   4.384   0.537 -2.4948 -1.6191  0.9563
 3561SOL    HW212125   7.251   4.289   0.578 -1.8357 -0.9433  0.7707
 3562SOL     OW12126   3.854   7.148   9.985  0.1626  0.4572  0.0545
 3562SOL    HW112127   3.871   7.070  10.037 -1.6615  1.4465  2.3369
 3562SOL    HW212128   3.928   7.205  10.002  1.7991 -0.8957 -2.0864
 3563SOL     OW12129   1.953   3.796   5.221 -0.3821 -0.0895 -0.5493
 3563SOL    HW112130   1.880   3.753   5.265  1.0042 -2.2511 -0.2064
 3563SOL    HW212131   1.999   3.842   5.291 -0.0297 -0.8078 -0.2951
 3564SOL     OW12132   4.008   1.464   6.244  0.3213 -0.0996  0.1793
 3564SOL    HW112133   4.088   1.416   6.223  0.6406  0.1250  0.8734
 3564SOL    HW212134   4.037   1.543   6.289 -0.1517  1.1877 -1.6478
 3565SOL     OW12135   0.228   2.511   2.205  0.4994 -0.0277 -0.0053
 3565SOL    HW112136   0.236   2.605   2.224  0.4102 -0.1922  0.8708
 3565SOL    HW212137   0.299   2.470   2.255  1.5779 -0.2829 -1.6615
 3566SOL     OW12138   2.212   3.197   2.308 -0.0140  0.3455 -0.1086
 3566SOL    HW112139   2.236   3.280   2.348  0.2907 -0.1076  0.6794
 3566SOL    HW212140   2.271   3.189   2.233 -0.3797  1.0610 -0.4747
 3567SOL     OW12141   2.384   4.851   7.512  0.1787  0.1831  0.1155
 3567SOL    HW112142   2.451   4.838   7.445  0.8390 -0.2719  0.8430
 3567SOL    HW212143   2.305   4.813   7.475  0.8162 -1.1384  0.0620
 3568SOL     OW12144   6.088   3.210  10.559 -0.2086  0.6477  0.1794
 3568SOL    HW112145   6.130   3.133  10.521 -0.1517 -0.0242  1.5396
 3568SOL    HW212146   6.014   3.228  10.501 -0.1424 -0.3530 -0.2382
 3569SOL     OW12147   6.176   1.460   1.899  0.0649 -0.1065  0.1937
 3569SOL    HW112148   6.169   1.388   1.962  0.2545  0.8356  1.3274
 3569SOL    HW212149   6.222   1.422   1.824  1.0333 -0.9154  1.1702
 3570SOL     OW12150   0.762   0.219   6.584  0.1842 -0.1193 -0.2644
 3570SOL    HW112151   0.674   0.224   6.547 -0.0131  0.4813  0.2615
 3570SOL    HW212152   0.807   0.153   6.531 -0.0511  0.7753 -1.6338
 3571SOL     OW12153   4.854   7.556  10.656  0.7225  0.4957 -0.0435
 3571SOL    HW112154   4.772   7.526  10.695  1.3657 -0.1882  0.8395
 3571SOL    HW212155   4.835   7.566  10.563 -1.0740  2.8679  0.4730
 3572SOL     OW12156   3.584   4.248   4.346  0.1345 -0.0204 -0.1062
 3572SOL    HW112157   3.614   4.299   4.421  0.6424  0.5551 -0.6858
 3572SOL    HW212158   3.597   4.307   4.271 -0.2542 -0.6257 -0.6556
 3573SOL     OW12159   7.170   1.960   1.650  0.3406 -0.4299  0.4162
 3573SOL    HW112160   7.141   1.879   1.693  0.4488 -1.2882 -1.0791
 3573SOL    HW212161   7.236   1.996   1.710  1.7621 -2.4982  0.2161
 3574SOL     OW12162   5.461   0.853   3.108 -0.3284  0.3868  0.0803
 3574SOL    HW112163   5.495   0.894   3.029  0.8071 -0.3210  0.1729
 3574SOL    HW212164   5.403   0.784   3.077  1.9755 -1.5111 -0.2664
 3575SOL     OW12165   6.589   0.256   7.413 -0.2158 -0.1435  0.2616
 3575SOL    HW112166   6.622   0.167   7.400  1.1956  0.4871 -0.7829
 3575SOL    HW212167   6.617   0.303   7.335 -3.0087  0.6818 -0.3532
 3576SOL     OW12168   6.062   3.149   3.957 -0.2999 -0.3062  0.1717
 3576SOL    HW112169   6.060   3.241   3.929  0.0763 -0.7483 -1.3934
 3576SOL    HW212170   5.990   3.108   3.909  1.4309 -1.4539 -1.6066
 3577SOL     OW12171   4.273   7.650  10.193  0.2828  0.4027 -0.3482
 3577SOL    HW112172   4.181   7.641  10.218  0.1610 -0.5981 -1.0744
 3577SOL    HW212173   4.321   7.655  10.276 -0.3948  0.5425  0.0355
 3578SOL     OW12174   0.416   3.754   5.888 -0.0815 -0.3366 -0.0100
 3578SOL    HW112175   0.360   3.815   5.840 -0.9471 -0.0583  1.2783
 3578SOL    HW212176   0.479   3.810   5.933 -1.2881 -0.2678  1.7040
 3579SOL     OW12177   6.280   7.643   7.925 -0.1829 -0.0727  0.0793
 3579SOL    HW112178   6.320   7.562   7.895 -1.3706 -0.0113 -1.8200
 3579SOL    HW212179   6.216   7.616   7.990  0.5555 -0.4830  0.6475
 3580SOL     OW12180   1.530   0.125   4.574  0.1316 -0.2834 -0.2759
 3580SOL    HW112181   1.478   0.195   4.612  0.8344 -0.3437  0.8457
 3580SOL    HW212182   1.470   0.051   4.568 -0.0690 -0.1860  0.4628
 3581SOL     OW12183   6.537   3.195   8.848  0.5807  0.0559  0.3584
 3581SOL    HW112184   6.468   3.259   8.828  0.3771 -0.5005 -0.8224
 3581SOL    HW212185   6.618   3.244   8.840  0.3709  0.4482  0.6204
 3582SOL     OW12186   0.422   7.592  12.341  0.1782 -0.1290  0.0924
 3582SOL    HW112187   0.517   7.591  12.350  0.2471 -0.3828 -0.6222
 3582SOL    HW212188   0.403   7.669  12.288 -0.1327  0.6907  1.3531
 3583SOL     OW12189   1.234   6.702  11.546  0.4701  0.1399  0.7558
 3583SOL    HW112190   1.225   6.735  11.635  2.4830  1.1376  0.6560
 3583SOL    HW212191   1.262   6.611  11.557 -0.3971 -0.0870  1.1165
 3584SOL     OW12192   1.490   5.843   9.740 -0.6105  1.2071 -0.0083
 3584SOL    HW112193   1.404   5.829   9.781  0.2830  1.1637  1.9746
 3584SOL    HW212194   1.535   5.759   9.748 -0.3965  1.1988 -1.1272
 3585SOL     OW12195   6.815   4.512   0.698 -0.4991 -0.1268  0.7969
 3585SOL    HW112196   6.745   4.452   0.724 -0.6791 -0.0861  0.4081
 3585SOL    HW212197   6.836   4.488   0.607 -1.2333  1.0169  0.2985
 3586SOL     OW12198   1.098   7.096  12.031 -0.2848  0.2119  0.0008
 3586SOL    HW112199   1.036   7.123  11.964 -1.2323 -1.7446  0.0451
 3586SOL    HW212200   1.161   7.040  11.986  0.2373  0.4835  0.3731
 3587SOL     OW12201   4.678   7.361   2.323  0.7543 -0.0084 -0.1031
 3587SOL    HW112202   4.762   7.317   2.323 -0.3507 -2.2898  0.5246
 3587SOL    HW212203   4.698   7.453   2.310  3.3594 -0.4097  0.6789
 3588SOL     OW12204   6.435   2.533   0.678 -0.4856 -0.2169 -0.0633
 3588SOL    HW112205   6.527   2.506   0.673 -0.0166  1.4532 -1.6444
 3588SOL    HW212206   6.386   2.455   0.653  0.5490 -0.8497 -0.1920
 3589SOL     OW12207   5.885   4.673   3.580  0.1279  0.1349 -0.1368
 3589SOL    HW112208   5.792   4.671   3.603  0.1166  2.2721  0.2354
 3589SOL    HW212209   5.931   4.677   3.665  0.6903 -2.2433 -0.2574
 3590SOL     OW12210   1.085   5.745   1.148  0.0597  0.3669 -0.2660
 3590SOL    HW112211   1.141   5.727   1.073  0.6347  0.0491  0.2345
 3590SOL    HW212212   0.996   5.727   1.117  0.2862  0.3255 -0.8934
 3591SOL     OW12213   0.253   2.716   9.862  0.0986  0.7547 -0.0839
 3591SOL    HW112214   0.305   2.783   9.906  2.3210 -0.1006 -1.2580
 3591SOL    HW212215   0.176   2.704   9.918  0.7723  2.6212  1.3246
 3592SOL     OW12216   3.774   7.567   9.182  0.0043  0.2076  0.2294
 3592SOL    HW112217   3.841   7.621   9.143 -1.1413  0.3024 -1.7080
 3592SOL    HW212218   3.803   7.477   9.167 -0.1503  0.2534 -0.3759
 3593SOL     OW12219   3.490   0.180   7.255  0.2019  0.3488  0.8542
 3593SOL    HW112220   3.584   0.187   7.270  0.7171 -0.5205 -1.6429
 3593SOL    HW212221   3.481   0.114   7.187 -2.2773  0.0741  1.3573
 3594SOL     OW12222   7.151   1.910   4.596 -0.4074 -0.4116  0.4289
 3594SOL    HW112223   7.194   1.833   4.634  0.7147 -0.1283 -0.2227
 3594SOL    HW212224   7.191   1.984   4.640 -0.3504 -0.1486 -0.0622
 3595SOL     OW12225   7.274   0.771   2.559 -0.0236  0.0280 -0.3017
 3595SOL    HW112226   7.357   0.813   2.581 -0.2085  0.0012  0.4954
 3595SOL    HW212227   7.211   0.843   2.554 -0.5523 -0.1836  2.0745
 3596SOL     OW12228   2.739   7.258   1.320 -0.2214  0.1833  0.0527
 3596SOL    HW112229   2.792   7.302   1.254  0.2191 -0.9780 -0.3974
 3596SOL    HW212230   2.696   7.329   1.368 -0.9673  1.0481 -1.8129
 3597SOL     OW12231   3.949   7.132   8.002  0.4902 -0.2117 -0.8362
 3597SOL    HW112232   3.899   7.056   8.033  1.9643 -0.6126  0.6953
 3597SOL    HW212233   3.883   7.200   7.990 -0.6693 -1.2710 -0.7492
 3598SOL     OW12234   2.104   0.237   4.211 -0.2831  0.1513 -0.4437
 3598SOL    HW112235   2.197   0.256   4.223 -0.4514  0.0924  1.3879
 3598SOL    HW212236   2.063   0.322   4.198 -0.0661  0.2531 -0.4576
 3599SOL     OW12237   4.700   0.663   3.506  0.0207  0.0789  0.2486
 3599SOL    HW112238   4.606   0.647   3.496  0.2753 -0.3143 -2.0660
 3599SOL    HW212239   4.707   0.758   3.510 -0.6344  0.0765  3.1139
 3600SOL     OW12240   3.605   5.158   8.339 -0.0805  0.1762 -0.3516
 3600SOL    HW112241   3.639   5.148   8.250 -0.4606 -0.0062 -0.4809
 3600SOL    HW212242   3.512   5.177   8.326 -0.0829  0.3990  0.0018
 3601SOL     OW12243   1.070   3.422   3.830  0.1986  0.5590  0.6950
 3601SOL    HW112244   1.119   3.504   3.831  0.9765  0.1661 -1.2351
 3601SOL    HW212245   0.997   3.438   3.770  0.4165 -0.1782  0.2190
 3602SOL     OW12246   3.953   2.363   9.436  0.2382 -0.3112  0.2860
 3602SOL    HW112247   3.973   2.348   9.344 -1.0592  1.2631 -0.2869
 3602SOL    HW212248   3.933   2.275   9.470 -0.5630 -0.7633 -1.2545
 3603SOL     OW12249   5.194   1.560  10.400  0.4823 -0.0414 -0.4056
 3603SOL    HW112250   5.274   1.508  10.403 -0.8767 -2.3321 -1.3935
 3603SOL    HW212251   5.125   1.501  10.431 -0.8559  1.8560  0.4340
 3604SOL     OW12252   2.320   2.624  11.597 -0.4906  0.0724 -0.1227
 3604SOL    HW112253   2.350   2.550  11.543 -0.5688  1.8044 -2.7322
 3604SOL    HW212254   2.399   2.653  11.643  0.7750  1.1418 -2.6932
 3605SOL     OW12255   7.450   7.153   9.719 -0.5632 -0.5575 -0.2113
 3605SOL    HW112256   7.484   7.220   9.780 -1.7152  0.6730 -0.8674
 3605SOL    HW212257   7.524   7.132   9.663  0.4459 -1.5059  1.4022
 3606SOL     OW12258   3.067   1.917   9.947  0.7524  0.0085 -0.3822
 3606SOL    HW112259   3.078   2.012   9.956 -1.4774  0.3037 -0.2892
 3606SOL    HW212260   3.033   1.905   9.858  1.4671 -0.7853 -0.5719
 3607SOL     OW12261   4.575   5.970   0.689  0.3366 -0.2899 -0.3400
 3607SOL    HW112262   4.588   5.925   0.773 -1.0525  0.2643  0.1925
 3607SOL    HW212263   4.659   5.961   0.644  1.1354 -0.5215  1.1482
 3608SOL     OW12264   2.766   1.691   4.439 -0.4203  0.5117 -0.7102
 3608SOL    HW112265   2.686   1.704   4.490  0.6603 -1.2497  1.5935
 3608SOL    HW212266   2.818   1.770   4.456 -0.6098  0.5119 -0.1080
 3609SOL     OW12267   7.609   7.367   5.596 -0.1101  0.3781 -0.3304
 3609SOL    HW112268   7.690   7.357   5.646 -0.2335  1.4922  0.1196
 3609SOL    HW212269   7.540   7.342   5.658 -0.1669  0.1907 -0.4670
 3610SOL     OW12270   1.714   3.063   3.635 -0.1777 -0.2579 -0.2681
 3610SOL    HW112271   1.644   3.031   3.691 -0.2040 -0.3714 -0.3662
 3610SOL    HW212272   1.794   3.032   3.676 -0.1315  0.5842  0.3171
 3611SOL     OW12273   1.083   1.400   8.960 -0.3123  0.1132  0.0324
 3611SOL    HW112274   1.102   1.443   9.043 -0.1436  0.6547 -0.2851
 3611SOL    HW212275   1.022   1.459   8.916 -0.7194 -0.3677 -0.0578
 3612SOL     OW12276   4.838   0.173   4.383  0.2944  0.1109 -0.0523
 3612SOL    HW112277   4.801   0.089   4.411  1.0566  0.2009  1.3123
 3612SOL    HW212278   4.921   0.179   4.429  0.6732  1.2256 -0.8338
 3613SOL     OW12279   1.620   2.992   4.073  0.3162  0.2878  0.1131
 3613SOL    HW112280   1.693   2.984   4.134  2.0920  1.4754 -1.7427
 3613SOL    HW212281   1.615   3.085   4.052 -0.5190 -0.0215 -1.2265
 3614SOL     OW12282   3.474   2.203   6.897 -0.0506  0.1522 -0.2864
 3614SOL    HW112283   3.512   2.173   6.980  1.3200  1.0397 -0.5532
 3614SOL    HW212284   3.547   2.198   6.835 -0.7804  0.5015 -1.1892
 3615SOL     OW12285   5.477   6.398   0.520  0.3518  0.8518  0.2645
 3615SOL    HW112286   5.537   6.384   0.447  0.6496 -1.9425  0.9458
 3615SOL    HW212287   5.396   6.353   0.494  0.9676 -1.5619  2.1868
 3616SOL     OW12288   4.105   5.620   4.249 -0.1014  0.3740 -0.5995
 3616SOL    HW112289   4.067   5.585   4.169 -0.6030 -0.0376 -0.1844
 3616SOL    HW212290   4.160   5.549   4.283 -1.3765 -0.1587  0.4153
 3617SOL     OW12291   0.749   0.177   6.198 -0.7694  0.3913 -0.0479
 3617SOL    HW112292   0.738   0.203   6.107 -3.1307  2.6514  0.7753
 3617SOL    HW212293   0.818   0.234   6.232  0.1589 -0.4974 -0.3744
 3618SOL     OW12294   6.141   6.600  10.958 -0.4745  0.1202  0.1121
 3618SOL    HW112295   6.052   6.579  10.930 -0.2769 -0.6984  0.0658
 3618SOL    HW212296   6.191   6.521  10.938  0.7125  1.2898 -1.7834
 3619SOL     OW12297   1.637   7.627   7.712 -0.1201 -0.8924 -0.0304
 3619SOL    HW112298   1.675   7.597   7.629 -0.5182  0.7403 -0.8506
 3619SOL    HW212299   1.548   7.592   7.712  0.1732 -1.6597  0.1569
 3620SOL     OW12300   4.725   3.184   8.277  0.2133 -0.3878  0.6284
 3620SOL    HW112301   4.669   3.246   8.229  1.5874 -0.0176 -0.5470
 3620SOL    HW212302   4.702   3.199   8.369 -1.8481 -0.4805  0.1945
 3621SOL     OW12303   4.438   5.907   2.157  0.6761 -0.1744 -0.1754
 3621SOL    HW112304   4.369   5.861   2.109 -0.0493  0.3878  0.2865
 3621SOL    HW212305   4.390   5.968   2.214  1.5394 -0.1481  0.5510
 3622SOL     OW12306   4.890   4.714  11.247 -0.3356  0.1230  0.4074
 3622SOL    HW112307   4.943   4.638  11.224 -0.0420  0.5174 -0.2572
 3622SOL    HW212308   4.876   4.707  11.341 -0.5166 -0.8793  0.3141
 3623SOL     OW12309   2.036   7.735  10.539 -0.1191  0.0426 -0.0375
 3623SOL    HW112310   2.005   7.708  10.453  0.9379  0.6858 -0.6449
 3623SOL    HW212311   2.077   7.656  10.575 -0.4076 -0.1804 -0.1976
 3624SOL     OW12312   0.334   1.372   7.704 -0.2018  0.1556 -0.0040
 3624SOL    HW112313   0.390   1.406   7.635  0.3393 -0.8125 -0.0639
 3624SOL    HW212314   0.260   1.332   7.658  0.3648 -0.8568 -0.0629
 3625SOL     OW12315   3.378   3.165  10.547  0.3062 -0.2064 -0.0002
 3625SOL    HW112316   3.333   3.082  10.563  1.1345 -0.6842 -0.0723
 3625SOL    HW212317   3.308   3.230  10.542 -0.2527 -0.5843  1.9334
 3626SOL     OW12318   0.078   4.827   7.236 -0.0895  0.2280  0.2697
 3626SOL    HW112319   0.060   4.733   7.233  0.3496  0.1588 -0.3468
 3626SOL    HW212320  -0.007   4.867   7.249 -0.3670 -0.2183 -0.1381
 3627SOL     OW12321   4.251   2.001   6.983  0.5167  0.3409 -0.4639
 3627SOL    HW112322   4.251   1.939   6.910 -1.8067 -0.2959 -0.0030
 3627SOL    HW212323   4.177   2.059   6.966  0.7738  1.0597  0.6982
 3628SOL     OW12324   3.400   0.067  10.974 -0.0865  0.1927  0.8688
 3628SOL    HW112325   3.377   0.139  11.034  0.4209  1.1314 -0.0271
 3628SOL    HW212326   3.354   0.089  10.893 -2.0773 -1.8960  1.3192
 3629SOL     OW12327   0.566   4.773   1.365  0.3360  0.6657 -0.6355
 3629SOL    HW112328   0.639   4.731   1.411 -0.9140 -0.0106  0.8271
 3629SOL    HW212329   0.581   4.753   1.273  1.2231 -0.7036 -0.2239
 3630SOL     OW12330   3.007   1.432   7.639  0.7002 -0.3320 -0.4403
 3630SOL    HW112331   3.019   1.428   7.734  1.7451 -0.9563 -0.5841
 3630SOL    HW212332   2.912   1.437   7.627  0.5631 -0.0729  0.6345
 3631SOL     OW12333   2.753   5.209   3.575  0.4578 -0.2050 -0.2139
 3631SOL    HW112334   2.793   5.283   3.622 -0.2441 -0.0821  0.2008
 3631SOL    HW212335   2.762   5.135   3.635  0.7436 -0.3566 -0.4394
 3632SOL     OW12336   6.581   1.336   7.340  0.0830  0.3396 -0.0800
 3632SOL    HW112337   6.666   1.292   7.333 -0.6408 -1.2219  0.5936
 3632SOL    HW212338   6.598   1.425   7.310  1.6931 -0.2681 -1.1004
 3633SOL     OW12339   7.587   3.277   8.428  0.0195 -0.2933 -0.1628
 3633SOL    HW112340   7.637   3.215   8.375 -0.6312  0.4699 -1.7755
 3633SOL    HW212341   7.652   3.337   8.464  0.5360 -1.1893  0.4440
 3634SOL     OW12342   7.885   2.802   1.685  0.2805  0.0457  0.0711
 3634SOL    HW112343   7.829   2.772   1.613  0.0795  1.1093 -0.2334
 3634SOL    HW212344   7.837   2.876   1.723  0.8928  0.1716  0.6158
 3635SOL     OW12345   6.000   6.195  11.519  0.2823  0.0670  0.1034
 3635SOL    HW112346   6.085   6.238  11.530  0.4264  0.3185 -1.6613
 3635SOL    HW212347   6.022   6.108  11.487 -0.0740 -0.8163  2.1325
 3636SOL     OW12348   1.925   2.710   5.823 -0.5058 -0.1219 -0.1985
 3636SOL    HW112349   1.892   2.621   5.814 -0.2830 -0.0788 -1.6653
 3636SOL    HW212350   1.996   2.716   5.759  0.0567  0.8461  0.4933
 3637SOL     OW12351   1.123   2.410   5.585  0.7455 -0.2651  0.2141
 3637SOL    HW112352   1.185   2.482   5.592 -1.6009  1.9530 -0.3556
 3637SOL    HW212353   1.095   2.411   5.494  0.7370 -2.0374  0.1555
 3638SOL     OW12354   7.829   6.607   2.701 -0.2955 -0.5882  0.9860
 3638SOL    HW112355   7.867   6.625   2.787  2.0576  1.5267 -0.3515
 3638SOL    HW212356   7.904   6.581   2.647 -1.4784 -0.4929 -0.7543
 3639SOL     OW12357   5.067   4.384  10.572  0.8960 -0.2347  0.2484
 3639SOL    HW112358   5.135   4.443  10.604 -1.9037  1.4613  3.8625
 3639SOL    HW212359   4.985   4.430  10.589 -1.2997 -2.4459 -3.1543
 3640SOL     OW12360   1.266   2.899   9.682  0.4510 -0.1526 -0.0995
 3640SOL    HW112361   1.220   2.816   9.691  0.5921 -0.4085 -1.5945
 3640SOL    HW212362   1.229   2.939   9.604 -0.1845  1.5776  1.0433
 3641SOL     OW12363   2.812   0.120   9.849  0.2557  0.2300  0.1595
 3641SOL    HW112364   2.819   0.091   9.758  1.2392  0.8929  0.0086
 3641SOL    HW212365   2.891   0.086   9.892  0.1542  0.5238  0.5908
 3642SOL     OW12366   0.435   3.155   2.643 -0.3163  0.0786  0.3227
 3642SOL    HW112367   0.362   3.095   2.627 -0.3192 -0.3272  1.6980
 3642SOL    HW212368   0.509   3.116   2.596 -1.0965  0.8511 -1.6516
 3643SOL     OW12369   7.010   6.254   6.074 -0.0201 -0.4251  0.3241
 3643SOL    HW112370   7.023   6.215   6.160  1.8741 -0.1096  0.2045
 3643SOL    HW212371   7.069   6.329   6.072 -2.1208  1.3379 -0.2023
 3644SOL     OW12372   4.664   0.458   9.782 -0.0966 -0.3724 -0.5638
 3644SOL    HW112373   4.702   0.371   9.769 -0.9779 -0.9116  0.3069
 3644SOL    HW212374   4.578   0.441   9.821  0.4365  0.9292  1.3449
 3645SOL     OW12375   5.820   6.071  12.269 -0.3769 -0.3945  0.3014
 3645SOL    HW112376   5.819   6.062  12.365  0.4042 -1.5071  0.2248
 3645SOL    HW212377   5.730   6.095  12.247 -0.7070 -0.6665  1.2743
 3646SOL     OW12378   2.646   2.161   7.069  0.5269  0.0950 -0.1799
 3646SOL    HW112379   2.631   2.250   7.100 -3.9098 -1.0235  1.5911
 3646SOL    HW212380   2.630   2.165   6.974 -1.2909  0.9858  0.1229
 3647SOL     OW12381   6.549   1.061   6.875 -0.0427 -0.0799 -0.1346
 3647SOL    HW112382   6.621   1.021   6.923  0.4098  0.3547 -0.4450
 3647SOL    HW212383   6.586   1.140   6.837 -0.7692  0.3158 -0.0364
 3648SOL     OW12384   6.201   1.188   1.058 -0.4685 -0.5803 -0.0479
 3648SOL    HW112385   6.126   1.172   1.000 -0.4442 -0.2822 -0.1662
 3648SOL    HW212386   6.258   1.245   1.007  0.0441 -1.1527 -0.1235
 3649SOL     OW12387   5.049   2.951   8.276 -0.0170  0.1982  0.1671
 3649SOL    HW112388   5.119   2.940   8.340 -0.1756  1.7360  0.6473
 3649SOL    HW212389   4.975   2.982   8.327 -0.2821  0.9958 -0.6894
 3650SOL     OW12390   7.233   5.374  12.082 -0.0506  0.2675  0.5996
 3650SOL    HW112391   7.174   5.427  12.028  0.4372  1.1465  0.8912
 3650SOL    HW212392   7.316   5.422  12.080 -0.0682  0.4485  2.2687
 3651SOL     OW12393   3.699   3.616   0.950  0.5237 -0.3003 -0.8639
 3651SOL    HW112394   3.794   3.619   0.964  0.4670 -0.9314 -0.3019
 3651SOL    HW212395   3.672   3.708   0.952  0.7872 -0.1867  1.5199
 3652SOL     OW12396   1.690   1.129  10.764 -0.1393 -0.1199 -0.4446
 3652SOL    HW112397   1.753   1.082  10.820  1.8454  1.2457 -1.4092
 3652SOL    HW212398   1.666   1.206  10.816  0.5932  0.4064 -0.8679
 3653SOL     OW12399   7.868   6.015   1.558  0.2940  0.1444 -0.1570
 3653SOL    HW112400   7.868   5.926   1.595 -0.5268 -1.3740 -3.3764
 3653SOL    HW212401   7.960   6.035   1.545  0.4759 -1.2819 -1.4313
 3654SOL     OW12402   1.831   5.782   9.001  0.1490  0.6750  0.2043
 3654SOL    HW112403   1.764   5.817   9.060 -0.7913  0.2169 -0.5562
 3654SOL    HW212404   1.782   5.756   8.923  1.2416  0.4294 -0.4103
 3655SOL     OW12405   7.808   4.448   3.025  0.0525 -0.2620 -0.2339
 3655SOL    HW112406   7.900   4.443   3.051  0.0408 -1.1269 -0.3479
 3655SOL    HW212407   7.769   4.509   3.088  1.0754  1.6086 -1.3195
 3656SOL     OW12408   3.552   5.238   0.576  0.0271 -0.3378  0.3880
 3656SOL    HW112409   3.518   5.325   0.554  0.2620 -0.7346 -1.7454
 3656SOL    HW212410   3.571   5.243   0.670 -3.6214  0.6433  1.2246
 3657SOL     OW12411   4.842   6.742  10.900 -0.2067 -0.0142 -0.7153
 3657SOL    HW112412   4.804   6.720  10.985 -0.2154  2.2343 -0.0689
 3657SOL    HW212413   4.927   6.697  10.900  0.6470  1.4292  1.3618
 3658SOL     OW12414   6.504   5.095  11.387 -0.3254 -0.3044  0.2373
 3658SOL    HW112415   6.594   5.123  11.400 -0.4437 -0.8334  2.6305
 3658SOL    HW212416   6.509   5.027  11.320  0.8238  0.6250 -0.6593
 3659SOL     OW12417   4.538   0.281   7.292  0.0372  0.1332 -0.5467
 3659SOL    HW112418   4.529   0.376   7.298  0.2824  0.0725  1.1803
 3659SOL    HW212419   4.448   0.249   7.290 -0.0562  0.3582 -0.0905
 3660SOL     OW12420   0.632   7.869   1.083  0.6670 -0.1712 -0.1209
 3660SOL    HW112421   0.665   7.958   1.082  0.7129 -0.1894 -0.4623
 3660SOL    HW212422   0.663   7.831   1.001 -0.8629  0.0570 -0.8550
 3661SOL     OW12423   4.937   0.389   6.353  0.6672 -0.3216  0.2854
 3661SOL    HW112424   5.030   0.405   6.334  0.7733  0.2657  1.1892
 3661SOL    HW212425   4.935   0.375   6.448 -0.1204 -0.7450  0.2100
 3662SOL     OW12426   6.476   7.467  10.126  0.2585 -0.0889 -0.5518
 3662SOL    HW112427   6.504   7.440  10.038  0.6419 -1.6599  0.0164
 3662SOL    HW212428   6.417   7.398  10.155  1.3878 -0.4547  1.0384
 3663SOL     OW12429   2.614   2.956  12.323 -0.0046 -0.1302 -0.3989
 3663SOL    HW112430   2.597   3.046  12.349  0.4106  0.8641 -3.1576
 3663SOL    HW212431   2.707   2.943  12.340 -0.2076 -0.2902  0.6245
 3664SOL     OW12432   2.194   1.309   2.353 -0.3293  0.6094  0.0850
 3664SOL    HW112433   2.283   1.277   2.367  0.2632  1.4847 -1.4733
 3664SOL    HW212434   2.142   1.230   2.339  0.6141  0.1730 -1.1069
 3665SOL     OW12435   2.906   6.231   7.454  0.2026 -0.3670  0.1681
 3665SOL    HW112436   2.981   6.174   7.470  0.5983 -0.5845 -2.0974
 3665SOL    HW212437   2.919   6.306   7.512  1.8770 -0.6730  0.2167
 3666SOL     OW12438   4.426   7.274   7.189  0.0900 -0.5779 -0.3735
 3666SOL    HW112439   4.357   7.225   7.234  0.5392 -1.1695 -0.3252
 3666SOL    HW212440   4.381   7.350   7.152 -0.5191 -0.7654 -0.0271
 3667SOL     OW12441   4.613   2.992   0.298  0.2801  0.2580  0.0286
 3667SOL    HW112442   4.620   2.933   0.223 -2.2571 -0.2467  0.1135
 3667SOL    HW212443   4.602   3.079   0.260 -0.8386  0.0248 -0.1955
 3668SOL     OW12444   5.539   1.447   8.961 -0.4029  0.2074 -0.7751
 3668SOL    HW112445   5.616   1.494   8.992  1.6261 -3.8722  0.9939
 3668SOL    HW212446   5.465   1.493   9.003  1.4143  1.4973  1.2112
 3669SOL     OW12447   4.097   5.971   5.756  0.0174  0.0115  0.3749
 3669SOL    HW112448   4.156   6.027   5.807  1.3596 -1.9296  1.0669
 3669SOL    HW212449   4.058   5.913   5.821  0.1087 -1.1038 -0.5464
 3670SOL     OW12450   7.819   4.571   3.627 -0.3209  0.7320  0.1844
 3670SOL    HW112451   7.827   4.663   3.651  0.4335  0.6853  0.1154
 3670SOL    HW212452   7.895   4.529   3.667  0.5983  0.5371 -1.7019
 3671SOL     OW12453   5.814   0.742   6.525 -0.0860  0.0486 -0.6140
 3671SOL    HW112454   5.817   0.782   6.612 -2.2807  2.2711 -1.4306
 3671SOL    HW212455   5.813   0.817   6.465  0.4054 -1.4047 -2.5193
 3672SOL     OW12456   6.631   5.301   7.074 -0.4839  0.8445  0.2627
 3672SOL    HW112457   6.660   5.386   7.107 -0.1139 -0.1130  2.6133
 3672SOL    HW212458   6.703   5.271   7.017  0.6997  0.9034  1.6731
 3673SOL     OW12459   2.501   0.174   0.675  0.0953 -0.2529  0.1912
 3673SOL    HW112460   2.445   0.113   0.627 -1.9785  1.0895  0.7576
 3673SOL    HW212461   2.543   0.226   0.607  0.6135 -1.2083 -0.2423
 3674SOL     OW12462   7.867   0.795  11.040  0.2003  0.0796 -0.0910
 3674SOL    HW112463   7.877   0.866  10.977  0.1566  0.4490  0.3166
 3674SOL    HW212464   7.848   0.718  10.986  0.1638  0.3913 -0.5297
 3675SOL     OW12465   6.546   4.964   7.963 -0.0503 -0.1548  0.2916
 3675SOL    HW112466   6.589   5.037   7.918  0.1116 -0.0699  0.5830
 3675SOL    HW212467   6.533   4.898   7.895  0.2715 -0.0596  0.1388
 3676SOL     OW12468   0.551   2.366   8.135 -0.0431  0.0794  0.4130
 3676SOL    HW112469   0.465   2.408   8.131  0.3133  0.7189 -1.5832
 3676SOL    HW212470   0.613   2.437   8.116  0.6866 -0.9576 -1.3124
 3677SOL     OW12471   5.567   5.508   6.318  0.1980 -0.3616 -0.1247
 3677SOL    HW112472   5.628   5.478   6.251  0.4928 -1.9052  0.7868
 3677SOL    HW212473   5.622   5.526   6.394 -0.4086 -1.4447  0.6014
 3678SOL     OW12474   5.544   5.923   0.655  0.4243  0.3181 -0.2294
 3678SOL    HW112475   5.526   5.850   0.595  1.1705  0.5873 -0.7888
 3678SOL    HW212476   5.621   5.967   0.618  1.7510 -0.3044  1.6206
 3679SOL     OW12477   0.061   5.923   7.848  0.0014  0.4955  0.2785
 3679SOL    HW112478  -0.001   5.996   7.856 -2.6529 -1.6559  0.4076
 3679SOL    HW212479   0.131   5.946   7.910 -1.8037  1.9363  1.9254
 3680SOL     OW12480   2.041   3.051   8.088 -0.1838  0.0755  0.5233
 3680SOL    HW112481   1.976   3.030   8.156  0.8246  0.2009  1.5587
 3680SOL    HW212482   2.052   2.969   8.040  0.7998 -0.7150  2.0123
 3681SOL     OW12483   3.792   5.074  10.809  0.0493 -0.2014 -0.4006
 3681SOL    HW112484   3.840   4.992  10.800  0.4391  0.0939 -1.1302
 3681SOL    HW212485   3.796   5.113  10.722 -0.3108  0.4946 -0.1109
 3682SOL     OW12486   3.117   6.219   1.467  0.4657 -0.0169 -0.5069
 3682SOL    HW112487   3.119   6.259   1.380  1.4855  2.2843  0.5019
 3682SOL    HW212488   3.204   6.178   1.476 -0.0792 -1.3619 -0.9884
 3683SOL     OW12489   4.618   3.397   8.138  0.3914 -0.1108  0.4685
 3683SOL    HW112490   4.662   3.475   8.172 -1.8900  1.4519  0.0695
 3683SOL    HW212491   4.648   3.390   8.047  0.4184  0.4770  0.4255
 3684SOL     OW12492   1.606   7.809   2.090  0.1383  0.6364 -0.4741
 3684SOL    HW112493   1.521   7.852   2.097 -0.5370 -0.6545 -0.4786
 3684SOL    HW212494   1.624   7.806   1.996  0.3339  1.1618 -0.4574
 3685SOL     OW12495   1.641   3.269   2.889 -0.0592  0.3087  0.2213
 3685SOL    HW112496   1.697   3.194   2.908  1.3835  1.3998  0.4826
 3685SOL    HW212497   1.557   3.247   2.928  0.8610 -0.4106  1.8954
 3686SOL     OW12498   0.257   3.541   0.629 -0.4176 -0.0988 -0.7650
 3686SOL    HW112499   0.211   3.505   0.705 -0.9773 -0.3476 -1.2158
 3686SOL    HW212500   0.349   3.528   0.649 -0.5560 -0.1497 -0.1221
 3687SOL     OW12501   5.869   7.351   0.699  0.6017  0.4292 -0.0878
 3687SOL    HW112502   5.856   7.367   0.605  1.8500  3.6562  0.1567
 3687SOL    HW212503   5.963   7.336   0.708  0.3002 -1.2827  0.5386
 3688SOL     OW12504   6.435   1.163  10.443 -0.3383 -0.2832 -1.0891
 3688SOL    HW112505   6.487   1.223  10.389 -2.1818  1.9425 -0.5698
 3688SOL    HW212506   6.367   1.219  10.481 -1.3244 -2.4909  0.5849
 3689SOL     OW12507   5.568   0.075   3.628 -0.0036 -0.1235  0.2608
 3689SOL    HW112508   5.486   0.123   3.614  0.9417  0.9232 -2.3190
 3689SOL    HW212509   5.604   0.111   3.709 -0.6948  1.5187 -0.1355
 3690SOL     OW12510   7.652   0.830   5.112  0.3189 -0.3068  0.3599
 3690SOL    HW112511   7.732   0.837   5.163  0.5715 -1.5972  0.1634
 3690SOL    HW212512   7.584   0.808   5.176  0.1384  0.5639  0.4911
 3691SOL     OW12513   5.621   6.017   7.425  0.4231  0.0872  0.3012
 3691SOL    HW112514   5.581   5.931   7.435  0.6026 -0.0101  0.2024
 3691SOL    HW212515   5.559   6.078   7.464  0.5708 -0.1510  0.9184
 3692SOL     OW12516   4.408   6.061   7.744  0.1229 -0.2736  0.0785
 3692SOL    HW112517   4.398   6.119   7.669  2.0474  1.0501  0.7518
 3692SOL    HW212518   4.324   6.015   7.751 -0.5720  0.5709 -2.0143
 3693SOL     OW12519   6.747   1.390   8.918 -0.5678  0.1100 -0.2317
 3693SOL    HW112520   6.815   1.438   8.966 -0.1800  0.7298 -1.3532
 3693SOL    HW212521   6.702   1.338   8.985 -0.1882  1.0961  0.8245
 3694SOL     OW12522   0.682   5.238   8.976  0.4094 -0.1890  0.1565
 3694SOL    HW112523   0.759   5.182   8.970 -0.6008 -1.4850 -2.4298
 3694SOL    HW212524   0.608   5.180   8.957 -0.7593  1.7920 -1.8763
 3695SOL     OW12525   4.594   7.721  10.237 -0.0188 -0.4092 -0.2992
 3695SOL    HW112526   4.668   7.659  10.236 -1.3675 -2.0958 -0.2151
 3695SOL    HW212527   4.557   7.715  10.149  0.8708  1.6652 -0.8695
 3696SOL     OW12528   2.893   1.919   2.709  0.0003 -0.0196  0.1469
 3696SOL    HW112529   2.810   1.942   2.750 -0.4497 -1.4112  0.0720
 3696SOL    HW212530   2.937   1.861   2.771  0.0970 -0.7297 -0.5533
 3697SOL     OW12531   3.888   3.294  11.814 -0.3601 -0.3160  0.0342
 3697SOL    HW112532   3.873   3.210  11.771 -1.6263 -0.7415  1.2417
 3697SOL    HW212533   3.817   3.302  11.878 -0.8685  2.1432 -0.7363
 3698SOL     OW12534   0.955   0.948   9.685 -0.0709  0.1064  0.9590
 3698SOL    HW112535   0.886   0.893   9.649  0.6870 -0.3799  0.2445
 3698SOL    HW212536   1.032   0.930   9.631  0.8393  0.0541  2.2288
 3699SOL     OW12537   0.754   2.013   8.071 -0.1945  0.2918  0.5340
 3699SOL    HW112538   0.716   1.991   7.986 -0.9598 -1.5238  1.2939
 3699SOL    HW212539   0.849   2.009   8.057 -0.3069  0.3933 -0.3092
 3700SOL     OW12540   1.034   7.580   1.325  0.6625 -0.5537  0.5249
 3700SOL    HW112541   0.950   7.549   1.290  0.7428 -1.3850  1.0254
 3700SOL    HW212542   1.019   7.586   1.420  0.6183  1.0981  0.4470
 3701SOL     OW12543   1.655   1.888   1.713 -0.4229 -0.3867  0.6380
 3701SOL    HW112544   1.582   1.926   1.762 -1.1386 -1.6699  0.6151
 3701SOL    HW212545   1.617   1.815   1.665  0.6417 -0.3029 -0.3790
 3702SOL     OW12546   5.273   4.760   0.202 -0.0640 -0.0166  0.2629
 3702SOL    HW112547   5.199   4.800   0.248 -1.5658 -1.3625 -0.9200
 3702SOL    HW212548   5.236   4.722   0.123  2.0353 -0.0463 -0.7823
 3703SOL     OW12549   7.367   3.379   5.589 -0.0481  0.5567  0.2208
 3703SOL    HW112550   7.374   3.436   5.512  0.6216 -1.4310 -1.3026
 3703SOL    HW212551   7.277   3.389   5.618 -0.7469  0.3458 -1.7190
 3704SOL     OW12552   7.345   2.092   1.828  0.1121  0.1995 -0.0484
 3704SOL    HW112553   7.412   2.108   1.894  0.2162  0.9317 -0.3159
 3704SOL    HW212554   7.295   2.174   1.825 -0.5325 -0.1976 -0.1407
 3705SOL     OW12555   1.574   4.136   8.928 -0.2677  0.3111  0.0111
 3705SOL    HW112556   1.540   4.213   8.974  0.6469  0.3163  0.7121
 3705SOL    HW212557   1.573   4.067   8.994 -2.7420 -0.8067 -1.0658
 3706SOL     OW12558   3.714   2.282   1.197 -0.2474  0.1715  0.0467
 3706SOL    HW112559   3.808   2.271   1.213 -0.2042  0.0751 -0.2795
 3706SOL    HW212560   3.696   2.230   1.119 -0.9190 -1.2564  1.0993
 3707SOL     OW12561   4.759   5.829   8.895  0.6743 -0.0032  0.2966
 3707SOL    HW112562   4.747   5.864   8.807 -0.1751  0.8887  0.7382
 3707SOL    HW212563   4.686   5.769   8.907  0.5499  0.1898  0.5273
 3708SOL     OW12564   1.609   0.694   0.689  0.1405 -0.2911 -0.0073
 3708SOL    HW112565   1.628   0.661   0.777  0.3991 -1.9981 -0.6546
 3708SOL    HW212566   1.517   0.721   0.693  0.1352 -0.3984  0.7758
 3709SOL     OW12567   1.752   7.435   1.778  0.1777 -0.2641 -0.0062
 3709SOL    HW112568   1.726   7.355   1.732  0.7033 -1.2074  1.2918
 3709SOL    HW212569   1.705   7.432   1.861 -1.0548  1.6093 -0.5756
 3710SOL     OW12570   3.871   7.314   2.212 -0.0242 -0.0160 -0.2110
 3710SOL    HW112571   3.959   7.276   2.216 -0.6246 -1.3574  1.3864
 3710SOL    HW212572   3.837   7.305   2.301 -1.5643  1.0280 -0.6552
 3711SOL     OW12573   3.854   1.104   0.576  0.2375  0.0239 -0.5495
 3711SOL    HW112574   3.880   1.185   0.532 -0.2265  0.2547 -0.4018
 3711SOL    HW212575   3.934   1.051   0.577  0.8694  0.9486  0.4056
 3712SOL     OW12576   7.251   0.521   5.282 -0.2202  0.1884  0.5969
 3712SOL    HW112577   7.219   0.500   5.369 -2.4233 -1.3528 -0.4613
 3712SOL    HW212578   7.247   0.437   5.235 -0.1014  1.1631 -1.2352
 3713SOL     OW12579   2.164   5.723   5.552 -0.3451  0.3785  0.3038
 3713SOL    HW112580   2.084   5.714   5.604  0.0116  1.1559  1.0043
 3713SOL    HW212581   2.215   5.644   5.571 -1.7395 -1.0834 -1.6167
 3714SOL     OW12582   6.855   0.203   2.912 -0.1795  0.1723  0.5323
 3714SOL    HW112583   6.856   0.116   2.952 -0.6833  0.0127  0.2100
 3714SOL    HW212584   6.778   0.246   2.949 -1.8506 -0.6845 -1.6912
 3715SOL     OW12585   1.480   3.903  11.000  0.7962  0.2439 -0.4319
 3715SOL    HW112586   1.389   3.933  11.005  0.7239  0.0273 -0.4547
 3715SOL    HW212587   1.524   3.969  10.947  0.7357  0.5533 -0.1027
 3716SOL     OW12588   2.696   2.617  10.533 -0.1039  0.3588  0.3479
 3716SOL    HW112589   2.718   2.692  10.588  0.5771  0.8086 -0.5036
 3716SOL    HW212590   2.694   2.652  10.444 -1.8072 -0.2195  0.1259
 3717SOL     OW12591   6.173   4.547  11.290  0.1281 -0.3471 -0.1908
 3717SOL    HW112592   6.135   4.501  11.215 -0.5645 -0.0487 -0.0299
 3717SOL    HW212593   6.229   4.614  11.251  0.7975 -1.0298 -0.4287
 3718SOL     OW12594   3.314   5.563   8.547 -0.1433  0.3285 -0.0664
 3718SOL    HW112595   3.303   5.658   8.548 -1.6706  0.1763 -1.0725
 3718SOL    HW212596   3.301   5.538   8.456  1.7627 -0.7140 -0.1073
 3719SOL     OW12597   3.760   5.848   4.462 -0.5007  0.2995  0.4827
 3719SOL    HW112598   3.811   5.882   4.535  1.2714 -0.7476 -0.2006
 3719SOL    HW212599   3.759   5.753   4.475 -1.5136  0.2225 -0.0312
 3720SOL     OW12600   3.410   5.822   8.661  0.1659 -0.1315 -1.0217
 3720SOL    HW112601   3.410   5.865   8.576  1.0610  0.3724 -0.7839
 3720SOL    HW212602   3.499   5.787   8.671  0.1145 -0.0710 -0.2475
 3721SOL     OW12603   3.178   7.803  11.283 -0.7083 -0.6332  0.0039
 3721SOL    HW112604   3.206   7.816  11.193  0.9105  0.7661  0.6372
 3721SOL    HW212605   3.203   7.713  11.304  1.1276 -0.2117 -0.2397
 3722SOL     OW12606   7.841   5.035   9.417  0.7182  0.2212 -0.2662
 3722SOL    HW112607   7.788   4.974   9.469 -0.3299  2.6241  1.7075
 3722SOL    HW212608   7.777   5.081   9.362  1.4944 -0.3908 -1.7356
 3723SOL     OW12609   5.256   0.445   5.059 -0.0482 -0.0120  0.0905
 3723SOL    HW112610   5.232   0.465   4.969 -1.1083  1.7279  0.7040
 3723SOL    HW212611   5.348   0.472   5.066 -0.7161  2.4585  0.1880
 3724SOL     OW12612   1.611   6.108   6.268 -0.0204 -0.6108  0.3473
 3724SOL    HW112613   1.608   6.190   6.218  1.6920 -0.5287  0.3283
 3724SOL    HW212614   1.570   6.044   6.211  1.0364 -0.3138 -0.7886
 3725SOL     OW12615   4.639   6.407  10.810 -0.0818  0.1667 -0.1088
 3725SOL    HW112616   4.729   6.427  10.786 -0.1716  1.5076  0.5744
 3725SOL    HW212617   4.645   6.327  10.862  0.8822  0.9232  0.9957
 3726SOL     OW12618   7.177   0.298   0.259  0.1381  0.2877  0.6965
 3726SOL    HW112619   7.154   0.331   0.346  0.6166  0.4629  0.7588
 3726SOL    HW212620   7.158   0.204   0.263 -2.0408  0.6364  0.2614
 3727SOL     OW12621   5.545   3.491   5.382 -0.3469  0.2008  0.5193
 3727SOL    HW112622   5.544   3.587   5.382  0.1207  0.2071  0.2387
 3727SOL    HW212623   5.575   3.467   5.469 -0.7109  0.3023  0.6767
 3728SOL     OW12624   5.159   7.442  11.802 -0.1726 -0.6303  0.2979
 3728SOL    HW112625   5.230   7.462  11.863  0.6904  0.1477 -0.9142
 3728SOL    HW212626   5.194   7.373  11.746 -0.2656 -0.0497 -0.4841
 3729SOL     OW12627   3.902   6.180   4.208 -0.1982  0.2972 -0.3870
 3729SOL    HW112628   3.944   6.095   4.193  0.2688  0.3045  0.8465
 3729SOL    HW212629   3.816   6.158   4.244 -0.2421  0.3520 -0.4559
 3730SOL     OW12630   1.162   2.185   5.965  0.1747 -0.0152 -0.2532
 3730SOL    HW112631   1.213   2.264   5.948 -1.2014  1.0236  0.2717
 3730SOL    HW212632   1.149   2.145   5.878  0.4683  0.6046 -0.5840
 3731SOL     OW12633   2.608   3.637   9.762 -0.4366 -0.3362  0.1988
 3731SOL    HW112634   2.622   3.731   9.771 -0.9251 -0.3633  1.4092
 3731SOL    HW212635   2.522   3.629   9.721 -0.4709 -0.2583  0.2556
 3732SOL     OW12636   3.818   5.335   9.836  0.2063 -0.0827  0.7370
 3732SOL    HW112637   3.851   5.249   9.860  0.8982 -0.2957 -0.8137
 3732SOL    HW212638   3.770   5.320   9.754  0.4215  1.0198  0.3935
 3733SOL     OW12639   6.318   1.586   4.681  0.3424  0.0225 -0.1007
 3733SOL    HW112640   6.311   1.611   4.773  0.5198  0.4598 -0.2022
 3733SOL    HW212641   6.249   1.636   4.637  0.5323  0.1441 -0.2648
 3734SOL     OW12642   2.379   5.533   7.731 -0.0259 -0.5281  0.2238
 3734SOL    HW112643   2.454   5.487   7.693  0.6803 -0.0831  1.0447
 3734SOL    HW212644   2.408   5.624   7.739 -0.7073 -0.3192  0.4119
 3735SOL     OW12645   6.221   4.243   2.810 -0.5690  0.4319 -0.0850
 3735SOL    HW112646   6.214   4.294   2.891  1.0438  0.4210  0.0880
 3735SOL    HW212647   6.171   4.293   2.746 -3.0897 -0.2666  1.1971
 3736SOL     OW12648   0.134   6.937   0.747 -0.6172 -0.0364 -0.5799
 3736SOL    HW112649   0.108   6.857   0.793 -0.8523  0.0062 -0.6378
 3736SOL    HW212650   0.162   6.997   0.816 -0.6901 -0.0757 -0.5171
 3737SOL     OW12651   4.767   6.973   6.965  0.2618  0.1564  0.1364
 3737SOL    HW112652   4.758   6.882   6.994  0.8582 -0.5441 -1.7084
 3737SOL    HW212653   4.860   6.982   6.945  0.1710  1.1313  0.1287
 3738SOL     OW12654   0.307   2.826   2.196  0.0589  0.4672  0.1068
 3738SOL    HW112655   0.364   2.800   2.123  0.5489 -0.4151  0.7883
 3738SOL    HW212656   0.218   2.815   2.161  0.1582 -3.0431  0.5374
 3739SOL     OW12657   1.882   4.027   8.334 -0.2873  0.3647  0.6585
 3739SOL    HW112658   1.844   4.081   8.265 -0.1450 -0.3268  0.0246
 3739SOL    HW212659   1.819   3.956   8.347  0.5532 -0.5592 -0.1096
 3740SOL     OW12660   6.067   2.353   6.031  1.0022 -0.2937 -0.2550
 3740SOL    HW112661   5.989   2.404   6.052 -0.8354 -2.4978 -1.1717
 3740SOL    HW212662   6.089   2.377   5.941  1.3795  0.3061 -0.0062
 3741SOL     OW12663   7.563   0.121   3.783 -0.2452  0.8369 -0.9785
 3741SOL    HW112664   7.641   0.140   3.731  0.8717  0.8338  0.6076
 3741SOL    HW212665   7.520   0.049   3.737  0.8849  0.6098 -1.7189
 3742SOL     OW12666   1.227   5.523  11.242  0.3562  0.2139 -0.3609
 3742SOL    HW112667   1.181   5.576  11.306 -1.7014  0.0433 -1.6232
 3742SOL    HW212668   1.161   5.464  11.207  1.4345  0.1963 -2.5327
 3743SOL     OW12669   1.712   1.152   3.478  0.3227 -0.1727  0.7489
 3743SOL    HW112670   1.655   1.099   3.533 -0.7282 -0.2570 -0.3858
 3743SOL    HW212671   1.694   1.242   3.505 -0.3214 -0.2028  0.4539
 3744SOL     OW12672   6.015   6.719   1.574  0.0150 -0.2060 -0.3242
 3744SOL    HW112673   5.996   6.631   1.543  0.5941 -0.7819  0.8492
 3744SOL    HW212674   5.987   6.777   1.504  0.2190 -1.3643 -1.3891
 3745SOL     OW12675   5.403   4.462   6.031  0.3827 -0.4213 -0.3502
 3745SOL    HW112676   5.360   4.543   6.006 -0.4338 -0.8672 -0.4123
 3745SOL    HW212677   5.338   4.394   6.014  1.2929 -1.1666 -0.9579
 3746SOL     OW12678   2.015   1.972   8.075  0.4520  0.6286 -0.5664
 3746SOL    HW112679   2.065   1.891   8.076 -1.8949 -0.9584 -1.8114
 3746SOL    HW212680   2.067   2.034   8.126  1.5763 -2.1068  1.8579
 3747SOL     OW12681   0.567   2.340   7.783  0.1034 -0.0849  0.2309
 3747SOL    HW112682   0.598   2.300   7.864 -0.6111 -2.7958 -0.7248
 3747SOL    HW212683   0.642   2.334   7.724 -0.2197 -0.6393 -0.1255
 3748SOL     OW12684   5.172   6.057   5.136  0.1065  0.6873 -0.5701
 3748SOL    HW112685   5.146   5.965   5.144 -0.3715  0.8583 -0.1051
 3748SOL    HW212686   5.238   6.069   5.205  0.6291  0.5336 -1.0400
 3749SOL     OW12687   3.040   4.372  11.188  0.2529  0.5669 -0.3200
 3749SOL    HW112688   3.068   4.410  11.271  2.0273 -0.5200 -0.3682
 3749SOL    HW212689   2.985   4.298  11.213 -0.2568  0.9948 -0.1548
 3750SOL     OW12690   3.219   3.219   5.833  0.3072 -0.1027  0.2338
 3750SOL    HW112691   3.288   3.219   5.900 -0.0721 -2.9547  0.7297
 3750SOL    HW212692   3.232   3.138   5.785 -0.3792  1.1581 -2.2379
 3751SOL     OW12693   2.090   5.532   1.753 -0.0598  0.2084  0.2529
 3751SOL    HW112694   2.066   5.624   1.759 -1.1601  0.1815 -2.2959
 3751SOL    HW212695   2.006   5.485   1.753  0.5104 -1.0025  2.9906
 3752SOL     OW12696   0.893   3.539   3.127 -0.3227  0.0145 -0.1430
 3752SOL    HW112697   0.951   3.584   3.066  0.2105 -0.9234 -0.3352
 3752SOL    HW212698   0.806   3.576   3.109  0.2329  1.6061  0.3298
 3753SOL     OW12699   0.254   3.972   3.661 -0.1306 -0.1892 -0.1853
 3753SOL    HW112700   0.242   4.040   3.727 -0.9063 -0.7995  0.3149
 3753SOL    HW212701   0.205   4.003   3.585  1.1421  0.7370 -0.6741
 3754SOL     OW12702   3.478   3.780   9.657 -0.5160  0.1103  0.0503
 3754SOL    HW112703   3.399   3.829   9.635 -0.4608 -0.5693 -1.8561
 3754SOL    HW212704   3.446   3.703   9.703 -1.0136 -0.2206 -0.8151
 3755SOL     OW12705   6.412   4.947   6.645 -0.8994  0.4597  0.0032
 3755SOL    HW112706   6.399   4.892   6.568 -0.9461 -0.1295  0.4220
 3755SOL    HW212707   6.436   4.885   6.715  0.4568  1.1215  0.1505
 3756SOL     OW12708   6.566   0.088   4.714 -0.3926 -0.8698 -0.1678
 3756SOL    HW112709   6.526   0.103   4.629  0.7455 -0.2397 -0.6184
 3756SOL    HW212710   6.572   0.175   4.753  0.8847 -0.8776 -0.2931
 3757SOL     OW12711   5.597   1.062  11.508  0.1349 -0.2714 -0.5737
 3757SOL    HW112712   5.552   0.995  11.560  1.2186 -1.6910 -1.3738
 3757SOL    HW212713   5.528   1.099  11.452 -0.9403  0.9178  1.4283
 3758SOL     OW12714   5.254   3.651  11.718 -0.5545  0.1989 -0.3880
 3758SOL    HW112715   5.260   3.706  11.796  0.1524 -0.3093 -0.0695
 3758SOL    HW212716   5.335   3.600  11.719 -2.2170 -2.6352  0.7061
 3759SOL     OW12717   6.644   1.511   9.371 -0.0646 -0.0807  0.2390
 3759SOL    HW112718   6.567   1.470   9.331 -0.1115  0.2683 -0.0390
 3759SOL    HW212719   6.697   1.438   9.403 -1.8270 -0.3455  2.9956
 3760SOL     OW12720   4.112   4.963   0.152 -0.2610 -0.2232  0.0081
 3760SOL    HW112721   4.204   4.970   0.179 -0.1516 -0.5047 -0.2766
 3760SOL    HW212722   4.069   4.921   0.227 -0.2994  0.5441  0.4247
 3761SOL     OW12723   1.715   0.247   8.858  0.1920 -0.0834  0.1351
 3761SOL    HW112724   1.692   0.325   8.908 -0.7989 -1.0866  1.2901
 3761SOL    HW212725   1.801   0.222   8.890  1.1375  1.2572 -1.1972
 3762SOL     OW12726   1.397   3.353   4.048 -0.1472 -0.5685  0.0354
 3762SOL    HW112727   1.392   3.280   3.986  0.2624 -1.0466  0.5534
 3762SOL    HW212728   1.358   3.319   4.128 -1.1304  0.2080 -0.0917
 3763SOL     OW12729   4.478   2.477   7.120  0.0047 -0.3435 -0.0533
 3763SOL    HW112730   4.481   2.413   7.191  1.5150 -1.7313 -1.2943
 3763SOL    HW212731   4.559   2.526   7.128 -0.4934  0.4933  0.0299
 3764SOL     OW12732   2.650   0.613   2.519 -0.5510 -0.3777 -0.0611
 3764SOL    HW112733   2.638   0.669   2.596 -1.2458 -0.3558 -0.1850
 3764SOL    HW212734   2.721   0.655   2.470 -0.9844  0.3334 -0.0935
 3765SOL     OW12735   3.781   5.917   9.342 -0.5653 -0.1670 -0.0536
 3765SOL    HW112736   3.865   5.926   9.386 -1.4460 -0.8868  1.8863
 3765SOL    HW212737   3.779   5.827   9.311 -0.1787  0.1792 -1.1348
 3766SOL     OW12738   3.406   3.137  11.250 -0.6532 -0.2908 -0.2714
 3766SOL    HW112739   3.389   3.184  11.332  0.2626 -1.7160  0.7947
 3766SOL    HW212740   3.457   3.060  11.277  1.8106  0.4326 -2.4751
 3767SOL     OW12741   2.006   2.163   1.068 -0.1839 -0.7907 -0.4493
 3767SOL    HW112742   1.937   2.155   1.135 -0.7522  0.2023 -0.9012
 3767SOL    HW212743   1.967   2.125   0.989 -1.3803  2.3209 -1.5058
 3768SOL     OW12744   6.923   5.064  10.725  0.3287  0.2897  0.1173
 3768SOL    HW112745   7.015   5.074  10.700  0.3486 -1.4248 -0.5960
 3768SOL    HW212746   6.922   5.079  10.820  1.3353  0.3539  0.1231
 3769SOL     OW12747   1.219   7.154   9.364 -0.3891 -0.2791  0.1556
 3769SOL    HW112748   1.177   7.213   9.426 -1.2974  0.6552 -1.2864
 3769SOL    HW212749   1.154   7.142   9.294  0.8215 -0.7833 -0.9265
 3770SOL     OW12750   6.153   2.709  10.404 -0.6140 -0.2004 -0.1612
 3770SOL    HW112751   6.235   2.684  10.447  0.0108 -0.9064 -1.6684
 3770SOL    HW212752   6.106   2.627  10.392 -1.0361  0.0577 -0.2881
 3771SOL     OW12753   7.794   5.551   7.053 -0.6292  0.7439 -0.3478
 3771SOL    HW112754   7.878   5.595   7.065  0.4996 -1.2508 -0.4908
 3771SOL    HW212755   7.802   5.505   6.970 -0.0574 -3.1011  1.6313
 3772SOL     OW12756   0.489   2.912   6.703 -0.3020  0.0127  0.2591
 3772SOL    HW112757   0.522   3.000   6.684  0.5812 -0.4552 -0.4722
 3772SOL    HW212758   0.400   2.926   6.734 -0.7084  1.0792 -1.2456
 3773SOL     OW12759   2.470   2.316   2.829  0.0015 -0.1272  0.0588
 3773SOL    HW112760   2.533   2.374   2.872 -0.0701  0.1466 -0.2058
 3773SOL    HW212761   2.520   2.236   2.813  0.0085 -0.2616  0.7153
 3774SOL     OW12762   2.294   7.019   6.114 -0.0737 -0.6574 -0.0214
 3774SOL    HW112763   2.360   7.041   6.049 -0.8806 -0.0863 -0.6672
 3774SOL    HW212764   2.275   6.926   6.098  0.0806 -0.6437 -0.2859
 3775SOL     OW12765   2.906   2.271   8.920 -0.2027  0.3210  0.2613
 3775SOL    HW112766   2.977   2.297   8.978 -0.8082  0.7051  0.8402
 3775SOL    HW212767   2.838   2.238   8.978  0.3666 -2.2456 -0.4017
 3776SOL     OW12768   5.655   7.834   6.655 -0.0750  0.5101  0.0595
 3776SOL    HW112769   5.618   7.748   6.676  1.2306 -0.5653 -1.6746
 3776SOL    HW212770   5.591   7.874   6.597  0.6257 -0.6693 -1.6381
 3777SOL     OW12771   4.843   6.350   4.611 -0.0014  0.1011 -0.0416
 3777SOL    HW112772   4.803   6.435   4.627  1.2559  0.6559  0.3202
 3777SOL    HW212773   4.783   6.287   4.651 -1.1597  0.7676 -0.6776
 3778SOL     OW12774   2.957   3.579   7.550  0.1734 -0.2725  0.2299
 3778SOL    HW112775   3.003   3.625   7.481  0.2749 -0.3840  0.2235
 3778SOL    HW212776   2.997   3.610   7.631 -0.0316 -0.0464  0.2451
 3779SOL     OW12777   2.846   2.938  11.677 -0.1405  0.4616  0.1066
 3779SOL    HW112778   2.908   2.999  11.716  0.2609 -0.5356  1.0613
 3779SOL    HW212779   2.804   2.895  11.751  0.8107 -1.6436 -0.5020
 3780SOL     OW12780   7.335   4.799   0.513  0.2013  0.1117  0.1613
 3780SOL    HW112781   7.410   4.752   0.550 -0.9957 -0.9993  1.3376
 3780SOL    HW212782   7.305   4.743   0.442 -0.1742 -0.0308  0.4275
 3781SOL     OW12783   7.269   2.108   4.735  0.1771 -0.2921  0.4278
 3781SOL    HW112784   7.267   2.195   4.694  0.0684 -0.3356  0.3410
 3781SOL    HW212785   7.258   2.125   4.828 -0.0334 -0.2271  0.3907
 3782SOL     OW12786   3.797   6.845   6.087 -0.3807  0.4503 -0.6219
 3782SOL    HW112787   3.724   6.905   6.103  0.6028  1.7299 -0.8185
 3782SOL    HW212788   3.873   6.887   6.127  0.3983 -0.5457 -0.9971
 3783SOL     OW12789   2.577   3.096   1.125 -0.2545 -0.1156 -0.6160
 3783SOL    HW112790   2.626   3.080   1.206  0.4258  1.2248 -0.7286
 3783SOL    HW212791   2.605   3.026   1.066 -0.4588 -0.8804  0.1662
 3784SOL     OW12792   3.078   4.814   5.453  0.1998 -0.1841  0.1912
 3784SOL    HW112793   3.037   4.861   5.526  1.2181  1.1070 -0.0183
 3784SOL    HW212794   3.114   4.735   5.492  0.4893  0.3548  1.0389
 3785SOL     OW12795   0.128   7.677   2.834 -0.5667  0.2716 -0.2053
 3785SOL    HW112796   0.061   7.745   2.836 -2.0998 -1.1799  0.6157
 3785SOL    HW212797   0.083   7.598   2.863  1.4437 -0.8578  0.0568
 3786SOL     OW12798   4.383   5.719  11.050  0.2862  0.1757 -0.5724
 3786SOL    HW112799   4.354   5.635  11.016  2.4654 -1.1911  0.7096
 3786SOL    HW212800   4.307   5.754  11.096  0.1302 -2.5864  1.5094
 3787SOL     OW12801   3.249   7.722   0.954 -0.0094 -0.2627  0.0668
 3787SOL    HW112802   3.196   7.790   0.995 -2.1682 -1.1217 -1.1421
 3787SOL    HW212803   3.328   7.718   1.007 -0.4180  2.2134  0.9918
 3788SOL     OW12804   7.119   6.497   3.611 -0.5211  0.4066  0.1425
 3788SOL    HW112805   7.139   6.576   3.661 -0.1544 -0.4881  1.4629
 3788SOL    HW212806   7.135   6.522   3.520  1.0404  1.4412  0.6471
 3789SOL     OW12807   7.156   0.601   5.861  0.1987 -0.5241 -0.8868
 3789SOL    HW112808   7.143   0.521   5.913  0.3517  0.7418  1.2327
 3789SOL    HW212809   7.250   0.605   5.846  0.1679 -0.8401 -1.1728
 3790SOL     OW12810   0.814   5.627   4.841  0.0382 -0.4400 -0.1336
 3790SOL    HW112811   0.741   5.590   4.791  0.5989  0.1385 -1.4206
 3790SOL    HW212812   0.890   5.616   4.785  0.7765 -0.1746  0.7924
 3791SOL     OW12813   7.286   1.103   0.169  0.2363 -0.6095 -0.3031
 3791SOL    HW112814   7.293   1.115   0.075  0.5730 -1.4856 -0.4025
 3791SOL    HW212815   7.222   1.032   0.180 -1.2329  0.7494  0.2176
 3792SOL     OW12816   4.650   6.551   8.313 -0.2720  0.0090  0.0040
 3792SOL    HW112817   4.598   6.623   8.276 -2.3762 -0.0522  2.5424
 3792SOL    HW212818   4.741   6.580   8.306 -0.9815  2.4106 -0.1055
 3793SOL     OW12819   2.245   1.704   3.397  0.3224 -0.5429 -0.7913
 3793SOL    HW112820   2.251   1.788   3.443 -1.5847 -0.9981  0.3879
 3793SOL    HW212821   2.230   1.728   3.305 -0.6418  0.4382 -0.3968
 3794SOL     OW12822   0.007   5.639  12.427  0.1351  0.6827  0.1400
 3794SOL    HW112823  -0.082   5.614  12.406  0.2981  1.0463 -1.0415
 3794SOL    HW212824   0.009   5.734  12.417  0.9560  0.5608 -1.0991
 3795SOL     OW12825   1.917   0.301  10.763 -0.0505 -0.1056 -0.2851
 3795SOL    HW112826   1.952   0.228  10.711  0.7631  0.2267 -0.2160
 3795SOL    HW212827   1.961   0.378  10.728 -0.4212  0.2754  0.0810
 3796SOL     OW12828   1.491   4.413  11.421 -0.4267 -0.7016 -0.5812
 3796SOL    HW112829   1.565   4.415  11.481 -0.3310  0.9270 -0.7064
 3796SOL    HW212830   1.437   4.340  11.451 -0.2024 -0.1582  1.2489
 3797SOL     OW12831   1.025   6.520   2.118 -0.4081 -0.3224 -0.0381
 3797SOL    HW112832   1.088   6.522   2.046  0.5783  1.0684  0.8045
 3797SOL    HW212833   1.004   6.428   2.131  1.1423 -0.7694 -0.6300
 3798SOL     OW12834   1.863   4.126   8.594  0.2154  0.1796 -0.1117
 3798SOL    HW112835   1.898   4.089   8.512  3.2038  0.1632  1.0233
 3798SOL    HW212836   1.898   4.215   8.596  2.0405 -0.4805  2.0276
 3799SOL     OW12837   3.074   1.595   1.668  0.2294  0.9590 -0.1282
 3799SOL    HW112838   3.049   1.662   1.604 -1.9422  1.5892  1.2757
 3799SOL    HW212839   3.116   1.644   1.739  1.0294  0.4811 -0.2605
 3800SOL     OW12840   3.741   5.960   0.463 -0.5251 -0.4549  0.1846
 3800SOL    HW112841   3.647   5.961   0.443 -0.7601  0.9082  1.2304
 3800SOL    HW212842   3.757   6.043   0.506  1.3139 -0.4149 -0.5150
 3801SOL     OW12843   4.794   6.522   2.840  0.0011  1.0885 -0.1632
 3801SOL    HW112844   4.782   6.494   2.749  0.7893  1.0480 -0.2671
 3801SOL    HW212845   4.776   6.616   2.839  0.0159  1.0887 -0.3621
 3802SOL     OW12846   5.847   0.463   9.343  0.0803  0.6626  0.1113
 3802SOL    HW112847   5.940   0.440   9.335 -0.1524 -0.1999 -0.2182
 3802SOL    HW212848   5.846   0.535   9.406  1.1410  1.9016 -1.2078
 3803SOL     OW12849   1.271   7.726   5.817 -0.0244 -0.6344  0.0435
 3803SOL    HW112850   1.328   7.797   5.787 -1.6271  0.3384 -0.8285
 3803SOL    HW212851   1.315   7.646   5.787  1.3037  0.0211  0.1560
 3804SOL     OW12852   4.290   6.264   7.286  0.7577  0.4199  0.0026
 3804SOL    HW112853   4.297   6.325   7.212  0.3076  0.9051  0.3527
 3804SOL    HW212854   4.202   6.278   7.320 -0.1782 -1.9508 -1.2102
 3805SOL     OW12855   0.013   1.344   4.819  0.4512  0.0047 -0.3178
 3805SOL    HW112856  -0.004   1.276   4.754  0.8097 -1.2993  0.8966
 3805SOL    HW212857  -0.070   1.391   4.827 -0.6780 -1.9972  0.7017
 3806SOL     OW12858   1.141   3.343   6.536  0.1028  0.3436 -0.3142
 3806SOL    HW112859   1.068   3.290   6.505 -0.4618  1.4593 -0.9675
 3806SOL    HW212860   1.115   3.433   6.517  1.3607  0.8129  0.0702
 3807SOL     OW12861   2.678   5.416  12.265  0.6529  0.1828  0.2211
 3807SOL    HW112862   2.773   5.408  12.274  0.8274  1.9289  0.3396
 3807SOL    HW212863   2.643   5.383  12.347  1.1668 -0.2865  0.2584
 3808SOL     OW12864   2.335   0.238  12.382 -0.0347 -0.0243 -0.2669
 3808SOL    HW112865   2.334   0.203  12.471 -1.0499  0.3359 -0.1242
 3808SOL    HW212866   2.395   0.312  12.386 -0.2603  0.1412  0.1909
 3809SOL     OW12867   4.550   7.889   1.235  0.0322 -0.3523  1.0861
 3809SOL    HW112868   4.536   7.795   1.244  1.6459 -0.5218  2.2372
 3809SOL    HW212869   4.638   7.904   1.269 -0.4316  1.6688  1.5419
 3810SOL     OW12870   6.607   7.510   5.794  0.1047  0.4454 -0.1035
 3810SOL    HW112871   6.527   7.509   5.741 -0.7942  0.0033  1.2232
 3810SOL    HW212872   6.628   7.603   5.803  0.0544  0.5438 -0.8921
 3811SOL     OW12873   2.368   0.453   9.075  0.0136 -0.2973  0.6946
 3811SOL    HW112874   2.440   0.416   9.024 -0.1314 -0.4373  0.5935
 3811SOL    HW212875   2.410   0.518   9.131  0.1948 -0.2544  0.5093
 3812SOL     OW12876   5.881   5.105   8.630  0.1597 -0.5391  0.0625
 3812SOL    HW112877   5.793   5.139   8.641 -0.0005 -1.5079  2.6497
 3812SOL    HW212878   5.875   5.046   8.555 -0.5703  1.6877 -1.7387
 3813SOL     OW12879   1.988   4.886   3.749 -0.0844 -0.3949  0.8360
 3813SOL    HW112880   2.022   4.962   3.797 -0.2290  0.5995 -0.5884
 3813SOL    HW212881   2.065   4.831   3.735  0.7446  1.1156 -1.0244
 3814SOL     OW12882   5.070   0.568   2.234  0.5324  0.6042  0.0291
 3814SOL    HW112883   5.020   0.487   2.225 -1.2523  1.7022 -0.3814
 3814SOL    HW212884   5.161   0.539   2.241 -0.1246 -1.4755  0.8330
 3815SOL     OW12885   0.690   4.015   2.597  0.3239  0.1899 -0.6335
 3815SOL    HW112886   0.671   4.033   2.505  1.4338  0.1877 -0.8800
 3815SOL    HW212887   0.743   4.090   2.625 -0.3166  0.3700  0.1122
 3816SOL     OW12888   0.744   6.784   0.059  0.9212 -0.3077 -0.0550
 3816SOL    HW112889   0.686   6.778  -0.018 -0.1025 -2.2437  0.7949
 3816SOL    HW212890   0.712   6.861   0.106  0.1738 -0.3351 -0.4883
 3817SOL     OW12891   6.085   4.494   8.604 -0.0309 -0.1366 -0.3835
 3817SOL    HW112892   6.068   4.401   8.620 -1.1140 -0.2007 -1.6772
 3817SOL    HW212893   6.030   4.540   8.666 -1.2537 -0.3756 -1.2576
 3818SOL     OW12894   0.597   1.298  10.934 -0.1402  0.1659  0.2127
 3818SOL    HW112895   0.625   1.306  11.025  0.2861  1.5616 -0.0239
 3818SOL    HW212896   0.525   1.360  10.925 -2.2637 -2.1177  0.3452
 3819SOL     OW12897   4.466   3.957   8.591  0.0829 -0.6177 -0.2270
 3819SOL    HW112898   4.480   3.974   8.498 -0.5090  3.2437  0.2369
 3819SOL    HW212899   4.543   3.906   8.617  0.2083 -1.9220 -2.7904
 3820SOL     OW12900   4.772   0.005  10.211 -0.1761  0.1540  0.3136
 3820SOL    HW112901   4.806  -0.076  10.173 -0.0619  0.3457  0.0002
 3820SOL    HW212902   4.769  -0.012  10.305  1.3239  0.3106  0.4283
 3821SOL     OW12903   0.013   2.230  10.599  0.1305 -0.1685  0.9746
 3821SOL    HW112904   0.041   2.228  10.508  0.6298  0.5857  1.1017
 3821SOL    HW212905  -0.044   2.307  10.606 -0.7192 -0.7910  1.0808
 3822SOL     OW12906   2.033   3.180   0.896  0.3708  0.2210 -0.3817
 3822SOL    HW112907   2.094   3.205   0.827  1.9026  0.3516  0.9503
 3822SOL    HW212908   2.089   3.163   0.972 -1.0506 -2.0995  0.2351
 3823SOL     OW12909   2.935   4.597   2.845  0.1029  0.1037 -0.4484
 3823SOL    HW112910   2.875   4.575   2.916 -0.6664  0.7776 -0.8727
 3823SOL    HW212911   3.010   4.539   2.858 -1.0048 -1.3917 -0.4202
 3824SOL     OW12912   4.871   0.642   1.807  0.2329 -0.6248 -0.1446
 3824SOL    HW112913   4.898   0.563   1.760 -1.2687 -2.5943  2.0619
 3824SOL    HW212914   4.822   0.693   1.743  2.4398 -0.6985 -2.0229
 3825SOL     OW12915   1.675   6.421   1.021 -0.3719  0.2776  0.3633
 3825SOL    HW112916   1.681   6.352   1.087 -1.1836 -0.0264  0.1403
 3825SOL    HW212917   1.764   6.455   1.012 -0.1872  0.0633  1.3345
 3826SOL     OW12918   7.432   4.589   5.583  0.0327  0.3421 -0.6630
 3826SOL    HW112919   7.449   4.676   5.546 -2.0927  0.7293 -0.8664
 3826SOL    HW212920   7.360   4.554   5.530 -0.4302 -0.7345  0.6269
 3827SOL     OW12921   2.326   5.883   0.479 -0.1527 -0.3817  0.1402
 3827SOL    HW112922   2.272   5.846   0.548 -1.6029  1.3505  0.0153
 3827SOL    HW212923   2.323   5.978   0.494  0.0770 -0.0081 -1.8648
 3828SOL     OW12924   4.309   2.653   2.752 -0.0402 -0.0999 -0.0564
 3828SOL    HW112925   4.286   2.744   2.731 -0.8964 -0.5828 -1.4121
 3828SOL    HW212926   4.398   2.643   2.720  0.9927  0.9012  2.3086
 3829SOL     OW12927   7.211   5.445   9.629 -0.7643  0.1985  0.6301
 3829SOL    HW112928   7.269   5.446   9.553 -0.9440 -1.2288  0.4341
 3829SOL    HW212929   7.261   5.488   9.698 -0.4109  1.0837 -0.1610
 3830SOL     OW12930   3.040   7.566   8.127  0.3017  0.1190 -0.1755
 3830SOL    HW112931   3.118   7.611   8.095  1.1045 -2.3168 -2.0152
 3830SOL    HW212932   3.018   7.610   8.209  3.9123  0.6237  0.6844
 3831SOL     OW12933   4.141   4.266  11.216  0.0674  0.6091 -0.4579
 3831SOL    HW112934   4.159   4.172  11.215  0.3059  0.5253  2.2484
 3831SOL    HW212935   4.047   4.273  11.201  0.3674  0.1517 -2.8686
 3832SOL     OW12936   3.549   3.115   0.560 -0.1039  0.4207  0.7263
 3832SOL    HW112937   3.633   3.159   0.574 -0.0821  0.6368 -0.0176
 3832SOL    HW212938   3.488   3.160   0.618 -0.0147  1.2432  0.2005
 3833SOL     OW12939   2.540   0.301   2.877 -0.0777 -0.2093  0.4200
 3833SOL    HW112940   2.545   0.209   2.903  0.2644 -0.4570 -0.4868
 3833SOL    HW212941   2.508   0.346   2.955  2.3170 -0.7013  1.7866
 3834SOL     OW12942   5.560   2.165   4.679 -0.1806  0.6162 -0.1182
 3834SOL    HW112943   5.469   2.174   4.652 -0.6748  0.3568  1.3802
 3834SOL    HW212944   5.610   2.205   4.608 -1.2835 -1.4910 -2.2082
 3835SOL     OW12945   0.815   1.428   1.457  0.3972 -0.3305  0.1514
 3835SOL    HW112946   0.910   1.431   1.444  0.5861 -2.4341  0.8293
 3835SOL    HW212947   0.779   1.457   1.373  1.6435 -0.7893 -0.5632
 3836SOL     OW12948   7.205   4.630   2.342 -0.0421 -0.0664  0.2529
 3836SOL    HW112949   7.223   4.695   2.274  2.1961 -0.3407  0.5030
 3836SOL    HW212950   7.258   4.554   2.318 -2.2594 -1.7082  0.2019
 3837SOL     OW12951   0.371   0.254   6.103 -0.1364  0.0693 -0.0355
 3837SOL    HW112952   0.313   0.317   6.146 -0.3480 -1.1524  1.5572
 3837SOL    HW212953   0.328   0.170   6.116  0.2592 -0.4538 -1.9246
 3838SOL     OW12954   5.305   5.377   2.454  0.5252 -0.2739  0.2769
 3838SOL    HW112955   5.326   5.286   2.476 -0.5463 -0.7279 -0.4912
 3838SOL    HW212956   5.282   5.417   2.538  1.1709 -0.6601  0.6463
 3839SOL     OW12957   5.861   1.520   7.406 -0.2692 -0.5246  0.3494
 3839SOL    HW112958   5.786   1.542   7.461 -0.7010  1.6621 -1.0060
 3839SOL    HW212959   5.850   1.574   7.328  2.2609 -0.8120 -0.2793
 3840SOL     OW12960   5.505   2.177   0.682  0.0784  0.2979  0.4790
 3840SOL    HW112961   5.457   2.160   0.600  0.6753 -1.5375  0.4720
 3840SOL    HW212962   5.596   2.184   0.655  0.3079 -0.5472  0.9943
 3841SOL     OW12963   2.935   0.955   8.927  0.1034 -0.8882 -0.1207
 3841SOL    HW112964   3.019   0.938   8.883  1.2958 -0.8412  2.0219
 3841SOL    HW212965   2.922   1.049   8.915  0.6373 -0.7941 -0.0141
 3842SOL     OW12966   2.628   5.167   0.898  0.3171 -0.3363  0.1285
 3842SOL    HW112967   2.649   5.256   0.928  1.9330 -0.2628 -1.0656
 3842SOL    HW212968   2.657   5.166   0.806 -2.9283 -1.0394 -1.0209
 3843SOL     OW12969   4.836   2.596   8.497 -0.4543  0.5911  0.0098
 3843SOL    HW112970   4.766   2.638   8.547 -1.0473  0.0103 -0.3082
 3843SOL    HW212971   4.913   2.603   8.553 -0.5730  1.9204  0.0438
 3844SOL     OW12972   0.796   2.651   0.804  0.1867  0.1758 -0.1748
 3844SOL    HW112973   0.728   2.704   0.845  0.7080  2.3381 -1.8530
 3844SOL    HW212974   0.861   2.637   0.873 -0.5615  0.6797  0.6552
 3845SOL     OW12975   2.456   0.153   5.832  0.3569 -0.3060  0.0022
 3845SOL    HW112976   2.540   0.199   5.835  0.7574 -1.0164 -0.0474
 3845SOL    HW212977   2.469   0.076   5.887 -0.8204  0.4445  1.4049
 3846SOL     OW12978   5.399   7.720   4.781  0.5177  0.5936  0.0050
 3846SOL    HW112979   5.395   7.732   4.686  1.0870  1.1899  0.0487
 3846SOL    HW212980   5.424   7.806   4.815  2.2883 -0.1020  0.5459
 3847SOL     OW12981   1.520   5.389   2.516 -0.1239  0.2803 -0.1467
 3847SOL    HW112982   1.467   5.390   2.437 -1.4792  0.5047  0.7396
 3847SOL    HW212983   1.610   5.390   2.484 -0.6204 -0.9047 -1.6922
 3848SOL     OW12984   7.824   4.569   4.246  0.1488 -0.2120 -0.1620
 3848SOL    HW112985   7.870   4.650   4.225 -2.8672  0.9897 -2.8936
 3848SOL    HW212986   7.736   4.597   4.271 -0.6003 -2.6073  0.1180
 3849SOL     OW12987   4.547   6.259   5.249  0.2917  0.4434  0.8036
 3849SOL    HW112988   4.599   6.277   5.170  0.2239  2.2849  1.1301
 3849SOL    HW212989   4.612   6.245   5.317  0.3671  1.1934  0.8919
 3850SOL     OW12990   6.892   0.924   5.905 -0.5100  1.1661  0.4594
 3850SOL    HW112991   6.852   0.975   5.975  0.8504  2.5842  0.2541
 3850SOL    HW212992   6.823   0.864   5.876 -0.9703  0.1761  3.3080
 3851SOL     OW12993   6.969   4.073   6.642  0.1994 -0.5591 -0.1077
 3851SOL    HW112994   6.992   4.076   6.735  0.6303 -1.6600 -0.1542
 3851SOL    HW212995   7.052   4.057   6.597 -0.0849 -0.6201 -0.6222
 3852SOL     OW12996   7.203   6.051  11.330  0.4585 -0.1583  0.5108
 3852SOL    HW112997   7.179   6.109  11.258  0.8507 -1.5841 -0.8376
 3852SOL    HW212998   7.133   5.986  11.331 -0.1044  0.4335  2.1493
 3853SOL     OW12999   0.237   2.885   3.559 -0.2591  0.1593 -0.0431
 3853SOL    HW113000   0.309   2.888   3.496  0.1057  1.4114  0.4217
 3853SOL    HW213001   0.223   2.976   3.584 -2.3901  0.0303 -0.5574
 3854SOL     OW13002   5.753   4.157   8.607  0.0183 -0.6155 -0.0629
 3854SOL    HW113003   5.747   4.112   8.691  0.7273  0.9721  0.8656
 3854SOL    HW213004   5.663   4.166   8.577 -0.6636  2.1758  2.3970
 3855SOL     OW13005   2.705   7.617   6.267  0.3518 -0.5609 -0.4808
 3855SOL    HW113006   2.685   7.645   6.178  0.8992 -1.3486 -0.8677
 3855SOL    HW213007   2.758   7.538   6.256  1.3924 -0.0303  0.5314
 3856SOL     OW13008   3.896   5.748   4.711 -0.3394 -0.2968 -0.2829
 3856SOL    HW113009   3.915   5.706   4.627  1.2156 -3.3206  1.4454
 3856SOL    HW213010   3.821   5.700   4.746  0.0742 -0.1679  0.7979
 3857SOL     OW13011   4.094   6.331  11.709 -0.1177 -0.1300  0.9833
 3857SOL    HW113012   4.027   6.264  11.697 -0.5256  0.4685 -0.2699
 3857SOL    HW213013   4.132   6.343  11.622  0.9839  0.1964  1.4950
 3858SOL     OW13014   3.991   0.518   7.714  0.9510 -0.4744  0.0227
 3858SOL    HW113015   3.994   0.451   7.782  2.5199 -0.5630 -0.0792
 3858SOL    HW213016   3.950   0.594   7.756  3.1103 -0.0607  1.5768
 3859SOL     OW13017   0.289   1.513   7.074 -0.4236  0.6801 -0.2736
 3859SOL    HW113018   0.312   1.555   6.991 -0.7709  0.7042 -0.3607
 3859SOL    HW213019   0.232   1.577   7.118  0.1063  0.8537  0.1782
 3860SOL     OW13020   3.604   6.907   2.894 -0.4350  0.3554 -0.2658
 3860SOL    HW113021   3.695   6.908   2.864 -0.7987 -1.1586 -1.5434
 3860SOL    HW213022   3.557   6.964   2.833 -0.0201  3.1889  1.8466
 3861SOL     OW13023   2.624   4.837   5.178 -0.4140  0.5946  0.1271
 3861SOL    HW113024   2.604   4.886   5.098 -1.2421 -0.8562 -0.6052
 3861SOL    HW213025   2.717   4.817   5.171 -0.5969 -0.0272 -0.8014
 3862SOL     OW13026   7.513   1.680   7.664 -0.0500  0.2847  0.1336
 3862SOL    HW113027   7.448   1.611   7.677  0.4322 -0.1703  0.1364
 3862SOL    HW213028   7.464   1.750   7.620  0.1202 -1.2118 -2.6265
 3863SOL     OW13029   4.438   0.452   2.216 -0.9317 -0.0941  0.5790
 3863SOL    HW113030   4.423   0.414   2.129 -1.3994  1.2464  0.0403
 3863SOL    HW213031   4.526   0.421   2.241  0.0410  1.0249 -1.2326
 3864SOL     OW13032   7.612   3.183   0.189 -0.0024 -0.3045  0.3258
 3864SOL    HW113033   7.595   3.200   0.096  0.1769  0.3389  0.4033
 3864SOL    HW213034   7.596   3.089   0.200 -2.9776  0.0888  0.2723
 3865SOL     OW13035   1.179   4.379   0.008  0.2425  0.4330 -1.1775
 3865SOL    HW113036   1.114   4.408  -0.055 -0.8940 -0.1147 -0.3087
 3865SOL    HW213037   1.141   4.400   0.093  0.8157 -0.6687 -0.6229
 3866SOL     OW13038   4.773   7.356   3.351  0.2429 -0.5011  0.1970
 3866SOL    HW113039   4.691   7.403   3.367 -0.6743 -2.0753  0.2463
 3866SOL    HW213040   4.791   7.311   3.433 -0.2442 -2.2272 -0.6015
 3867SOL     OW13041   0.943   0.842   8.605 -0.0461  0.3323  0.4518
 3867SOL    HW113042   0.922   0.885   8.687 -2.3428  0.6590 -0.2369
 3867SOL    HW213043   0.858   0.816   8.569  0.9289 -0.2833 -1.5535
 3868SOL     OW13044   7.325   2.787   1.465  0.1768 -0.2201 -0.0905
 3868SOL    HW113045   7.294   2.869   1.502  0.7367 -0.4078  0.8314
 3868SOL    HW213046   7.281   2.719   1.517  1.9439 -0.4946  1.1376
 3869SOL     OW13047   1.151   6.101   7.324 -0.3706 -0.2995  0.0670
 3869SOL    HW113048   1.071   6.058   7.354  0.2655  0.4232  3.1206
 3869SOL    HW213049   1.219   6.034   7.333 -0.2286 -0.1757 -0.0887
 3870SOL     OW13050   1.176   1.333   3.628 -0.0536  0.0742  0.0071
 3870SOL    HW113051   1.224   1.251   3.624 -0.4820 -0.1295 -1.8560
 3870SOL    HW213052   1.242   1.401   3.615  0.1234 -0.0404  0.3018
 3871SOL     OW13053   6.193   2.314   5.353  0.1666  0.1246  0.4502
 3871SOL    HW113054   6.269   2.352   5.398 -0.1269 -0.0817  1.1444
 3871SOL    HW213055   6.220   2.308   5.262  1.2465 -0.5588  0.7897
 3872SOL     OW13056   0.878   5.484   7.943  0.0925 -0.1784  0.0734
 3872SOL    HW113057   0.846   5.426   8.012  1.1045 -0.2271  0.5192
 3872SOL    HW213058   0.933   5.548   7.989  1.3626 -0.6324 -0.7478
 3873SOL     OW13059   1.832   2.734   0.552  0.0015  0.9305  0.3139
 3873SOL    HW113060   1.846   2.650   0.508  0.3534  1.0321  0.2338
 3873SOL    HW213061   1.809   2.794   0.482  1.5758  1.3393  0.1122
 3874SOL     OW13062   3.716   6.525  10.045 -0.0190 -0.0010 -0.4062
 3874SOL    HW113063   3.741   6.490  10.130 -0.5659  0.2126 -0.1568
 3874SOL    HW213064   3.660   6.600  10.065  1.6247  1.4400 -0.9053
 3875SOL     OW13065   6.912   6.062  10.994 -0.0082 -0.4407  0.4969
 3875SOL    HW113066   6.939   5.973  11.015  0.8159 -0.3388 -0.0562
 3875SOL    HW213067   6.961   6.083  10.914 -1.0580  0.0997 -0.0285
 3876SOL     OW13068   4.567   3.179   1.007  0.5511  0.3884 -0.1350
 3876SOL    HW113069   4.576   3.168   0.913  1.9926  0.6458 -0.0608
 3876SOL    HW213070   4.513   3.257   1.018  0.8976  0.7231 -0.7564
 3877SOL     OW13071   5.374   4.662   3.228 -0.1490 -0.6054 -0.1967
 3877SOL    HW113072   5.367   4.743   3.177  0.5088 -1.5670 -1.8910
 3877SOL    HW213073   5.459   4.669   3.272  0.3281 -0.7711 -1.0811
 3878SOL     OW13074   6.049   3.304  10.251 -0.6085 -0.1917  0.8232
 3878SOL    HW113075   5.978   3.252  10.290 -0.8789 -0.8942 -0.5656
 3878SOL    HW213076   6.128   3.253  10.270 -0.3860  0.7573  2.6655
 3879SOL     OW13077   4.460   4.787   5.715 -0.6279  0.4480 -0.8515
 3879SOL    HW113078   4.497   4.827   5.637  1.5371 -1.2148 -0.7629
 3879SOL    HW213079   4.536   4.762   5.768 -2.0044  0.3163  1.1701
 3880SOL     OW13080   7.644   5.194   3.568  0.0653  0.2925 -0.9043
 3880SOL    HW113081   7.614   5.280   3.598  1.2085  0.4428 -0.1262
 3880SOL    HW213082   7.736   5.190   3.595 -0.4901 -2.0198  0.9801
 3881SOL     OW13083   6.998   6.223   7.105 -0.1274 -0.3523  0.1613
 3881SOL    HW113084   6.902   6.218   7.105 -0.2557  0.8014 -1.6887
 3881SOL    HW213085   7.019   6.256   7.018  2.1238 -3.0505 -0.4668
 3882SOL     OW13086   3.353   6.110   4.495 -0.3083  0.8670  0.4464
 3882SOL    HW113087   3.336   6.188   4.548 -1.6665  0.4952  0.6032
 3882SOL    HW213088   3.413   6.058   4.548 -0.5483  1.1389  0.9958
 3883SOL     OW13089   3.538   3.717   9.944 -0.2156 -0.4483 -0.1304
 3883SOL    HW113090   3.502   3.632   9.918  0.9047 -0.7585 -0.7487
 3883SOL    HW213091   3.632   3.710   9.925  0.1487  0.3997  1.2179
 3884SOL     OW13092   1.207   0.982   5.543  0.0794 -0.0877  0.1605
 3884SOL    HW113093   1.281   1.032   5.578 -0.3527  0.7662 -0.1224
 3884SOL    HW213094   1.224   0.892   5.571  1.7289 -0.0851 -0.6954
 3885SOL     OW13095   1.340   2.683  10.622  0.4993 -0.6422 -0.1632
 3885SOL    HW113096   1.373   2.624  10.555  0.6717  2.4475 -3.0744
 3885SOL    HW213097   1.405   2.680  10.692  1.0832 -2.8991 -0.7437
 3886SOL     OW13098   2.778   1.918   6.829 -0.1631 -0.3233  0.5568
 3886SOL    HW113099   2.720   1.990   6.804 -0.6317 -0.9327 -0.1273
 3886SOL    HW213100   2.853   1.927   6.770 -0.3224 -0.5271  0.3230
 3887SOL     OW13101   2.888   7.401   6.243  0.1760 -0.1992  0.7684
 3887SOL    HW113102   2.968   7.421   6.293  2.0922  0.5998 -2.3607
 3887SOL    HW213103   2.913   7.327   6.187 -2.3677 -2.0776  1.9059
 3888SOL     OW13104   1.096   1.756   5.914 -0.0068  0.3725 -0.7897
 3888SOL    HW113105   1.148   1.803   5.849  0.3123 -0.2685 -1.0045
 3888SOL    HW213106   1.046   1.825   5.959  0.7361  0.9610 -0.8341
 3889SOL     OW13107   4.450   7.364  11.420  0.4928 -0.4618 -0.2816
 3889SOL    HW113108   4.454   7.459  11.424 -0.1683 -0.4075 -0.8703
 3889SOL    HW213109   4.540   7.338  11.397  0.5961  0.0298 -0.4458
 3890SOL     OW13110   4.158   4.706   5.769  0.0590  0.4510  0.2022
 3890SOL    HW113111   4.090   4.657   5.815 -1.4707  1.5638 -0.7893
 3890SOL    HW213112   4.122   4.794   5.759  1.1952  0.7850 -1.3000
 3891SOL     OW13113   5.461   6.747  11.319  0.6063  0.7795  0.1264
 3891SOL    HW113114   5.493   6.708  11.238 -1.4777  1.3567 -1.0465
 3891SOL    HW213115   5.442   6.672  11.376  2.0272  0.3669  0.0811
 3892SOL     OW13116   0.458   2.854   5.923  0.2253  0.0060  0.1055
 3892SOL    HW113117   0.489   2.910   5.994 -2.3355 -0.6193  1.8364
 3892SOL    HW213118   0.385   2.902   5.885  0.8475 -0.1856 -1.4092
 3893SOL     OW13119   7.649   0.983   6.318  0.2231 -0.1595 -0.0839
 3893SOL    HW113120   7.585   0.924   6.278 -0.0807  0.6427 -0.8027
 3893SOL    HW213121   7.731   0.934   6.316 -0.2972 -1.1025  0.6203
 3894SOL     OW13122   5.589   4.689   1.997 -0.1934 -0.3651 -0.1745
 3894SOL    HW113123   5.650   4.761   2.011  1.3567 -0.9833 -3.0291
 3894SOL    HW213124   5.502   4.730   2.003  0.5240  1.0495  1.3982
 3895SOL     OW13125   1.922   3.503  10.925 -0.3966  0.0808 -0.4039
 3895SOL    HW113126   1.928   3.560  10.848 -0.7580  0.8408  0.1205
 3895SOL    HW213127   1.888   3.560  10.994 -2.7254 -1.2199 -0.3697
 3896SOL     OW13128   2.998   1.352   5.441  0.7229 -0.2381 -0.0807
 3896SOL    HW113129   3.035   1.422   5.494  1.9891 -0.7008 -0.3343
 3896SOL    HW213130   2.962   1.290   5.505  1.1575 -0.2064  0.1948
 3897SOL     OW13131   2.581   5.462   9.734 -0.2426  0.1764 -0.2667
 3897SOL    HW113132   2.578   5.528   9.664 -0.0053  0.5188  0.0394
 3897SOL    HW213133   2.611   5.383   9.691  0.9922  0.6674 -0.3560
 3898SOL     OW13134   3.359   1.515   8.338  0.1604  0.0679  0.1799
 3898SOL    HW113135   3.307   1.515   8.418 -1.5881 -0.2751 -0.9179
 3898SOL    HW213136   3.449   1.526   8.369 -0.3727 -0.8353  2.2432
 3899SOL     OW13137   6.190   5.758  11.561  0.0830 -0.6968  0.2183
 3899SOL    HW113138   6.179   5.702  11.638 -0.7048 -0.7137  0.1049
 3899SOL    HW213139   6.236   5.703  11.498 -0.6533 -1.2109  0.1201
 3900SOL     OW13140   6.120   0.041   8.451 -0.3472 -0.5468 -0.0001
 3900SOL    HW113141   6.075  -0.028   8.403 -1.0809  0.0643 -0.2092
 3900SOL    HW213142   6.050   0.094   8.488  0.2102 -0.0949  0.4150
 3901SOL     OW13143   1.820   1.261  10.090 -0.2349 -0.3875  0.1552
 3901SOL    HW113144   1.785   1.178  10.059 -0.2411 -0.4220  0.2518
 3901SOL    HW213145   1.898   1.236  10.140  1.0712 -0.1702 -1.6802
 3902SOL     OW13146   4.261   0.052   7.714 -0.4040 -0.6438 -0.1632
 3902SOL    HW113147   4.217   0.132   7.686  1.1995  0.5654  0.5894
 3902SOL    HW213148   4.190  -0.011   7.727 -1.8691  1.0449  0.5047
 3903SOL     OW13149   6.797   4.323  11.696  0.2080  0.2440  0.0495
 3903SOL    HW113150   6.763   4.392  11.640 -0.8361 -0.7920 -0.6107
 3903SOL    HW213151   6.774   4.350  11.785  0.4978  1.1111 -0.1302
 3904SOL     OW13152   5.970   6.474  12.197  0.2032 -0.3280 -0.3149
 3904SOL    HW113153   5.938   6.487  12.108  0.1319  0.3836 -0.1935
 3904SOL    HW213154   5.994   6.562  12.227 -1.2832 -0.2995  0.9435
 3905SOL     OW13155   6.059   7.876   0.306 -0.5301 -0.2711  0.0649
 3905SOL    HW113156   6.008   7.924   0.372 -1.5379  1.8059 -2.0671
 3905SOL    HW213157   6.140   7.926   0.297 -0.0355 -1.0229  0.3150
 3906SOL     OW13158   0.839   6.483   4.223  0.1644  0.1282  0.3889
 3906SOL    HW113159   0.824   6.574   4.245 -2.9834  0.2172 -1.5996
 3906SOL    HW213160   0.790   6.433   4.288  1.3434 -0.1954  1.0763
 3907SOL     OW13161   1.296   4.546   5.702  0.6641  0.0533  0.2341
 3907SOL    HW113162   1.283   4.544   5.607 -0.1595 -2.1988  0.3377
 3907SOL    HW213163   1.344   4.465   5.721 -0.0320 -0.0190  1.8311
 3908SOL     OW13164   0.126   0.025  10.394  0.0176  0.1954 -0.4262
 3908SOL    HW113165   0.149   0.009  10.485  1.2136 -0.6610 -0.8541
 3908SOL    HW213166   0.124   0.120  10.386  2.6947  0.3481 -0.1293
 3909SOL     OW13167   6.781   5.342   0.419  0.0027 -0.0403 -0.0623
 3909SOL    HW113168   6.723   5.385   0.482 -0.2459  0.8020 -0.8528
 3909SOL    HW213169   6.825   5.274   0.470 -0.1146  0.6908  1.0462
 3910SOL     OW13170   7.087   2.722   6.348 -0.3822  0.3162 -0.5042
 3910SOL    HW113171   7.173   2.763   6.340  0.0331 -0.3285  0.4887
 3910SOL    HW213172   7.074   2.677   6.264  0.3295  0.2715 -0.5932
 3911SOL     OW13173   7.141   0.264  12.400 -0.1584  0.3623  0.2113
 3911SOL    HW113174   7.086   0.186  12.407  0.2850 -0.0464 -0.6748
 3911SOL    HW213175   7.149   0.296  12.490 -1.9417  0.5137  0.3572
 3912SOL     OW13176   0.718   2.895   4.741  0.0121 -0.2516  0.3719
 3912SOL    HW113177   0.646   2.846   4.781 -0.7116 -0.4092 -1.0607
 3912SOL    HW213178   0.712   2.875   4.648  2.6525 -1.1934  0.3266
 3913SOL     OW13179   6.576   4.427   1.388 -0.3126 -0.4996  0.4681
 3913SOL    HW113180   6.657   4.477   1.389 -0.1616 -0.7037 -0.7129
 3913SOL    HW213181   6.550   4.423   1.480  0.6902  0.0795  0.7952
 3914SOL     OW13182   3.045   0.856   6.772  0.6560  0.7268  0.1309
 3914SOL    HW113183   3.053   0.775   6.723 -4.1077 -0.7623  1.2352
 3914SOL    HW213184   3.130   0.868   6.814  1.9951 -2.8740 -1.2041
 3915SOL     OW13185   7.687   2.020   3.256 -1.0138  0.0752  0.2410
 3915SOL    HW113186   7.715   1.942   3.303 -0.3476 -0.3618 -0.8216
 3915SOL    HW213187   7.738   2.091   3.294 -1.9521  0.0893  1.5191
 3916SOL     OW13188   2.655   1.283   7.763 -0.4591  0.4180 -0.2716
 3916SOL    HW113189   2.647   1.345   7.836 -2.2905 -0.2210  0.1260
 3916SOL    HW213190   2.699   1.207   7.800 -0.9938  0.2715  0.0793
 3917SOL     OW13191   7.641   6.326   1.678 -0.1865 -0.4672  0.3382
 3917SOL    HW113192   7.568   6.388   1.684 -0.3742 -0.3748 -2.0176
 3917SOL    HW213193   7.662   6.305   1.769 -3.3444 -0.7351  1.1241
 3918SOL     OW13194   4.982   5.769   6.462  0.0941 -0.0383 -0.1978
 3918SOL    HW113195   4.887   5.773   6.473 -0.0145 -1.4382 -0.4677
 3918SOL    HW213196   5.006   5.857   6.434 -0.9172  0.7749  1.3074
 3919SOL     OW13197   4.047   5.214   1.797  0.1000 -0.0735 -0.0697
 3919SOL    HW113198   3.988   5.163   1.853  1.8877  0.0846  2.1187
 3919SOL    HW213199   4.126   5.160   1.791  0.5707  0.7068 -1.0432
 3920SOL     OW13200   5.042   5.245  10.103 -0.5852  0.2777 -0.2927
 3920SOL    HW113201   4.962   5.205  10.070 -0.5914 -0.2463  0.3377
 3920SOL    HW213202   5.024   5.264  10.195 -0.4600  1.4296 -0.4824
 3921SOL     OW13203   7.282   3.243   0.716  0.3667 -0.0348 -0.1012
 3921SOL    HW113204   7.337   3.320   0.724 -1.1517  0.9967  0.9320
 3921SOL    HW213205   7.270   3.211   0.805 -0.2081 -0.5967 -0.3634
 3922SOL     OW13206   3.519   7.734   8.538 -0.2372 -0.2357 -0.0026
 3922SOL    HW113207   3.579   7.792   8.491 -0.7578  0.6170  0.3708
 3922SOL    HW213208   3.503   7.662   8.477  1.3234 -0.5999 -0.0359
 3923SOL     OW13209   0.188   6.431   9.125  0.4776 -0.4893  0.2297
 3923SOL    HW113210   0.282   6.419   9.142  0.5748  0.6430  0.5348
 3923SOL    HW213211   0.151   6.451   9.210  0.0926 -0.0755 -0.0373
 3924SOL     OW13212   1.457   7.678   9.550 -0.6101  0.1234  0.5457
 3924SOL    HW113213   1.431   7.728   9.473  0.7366 -0.6808 -0.4741
 3924SOL    HW213214   1.550   7.660   9.537 -0.1269  0.6706  2.7695
 3925SOL     OW13215   1.638   0.522   5.265  0.1815  0.1681 -0.1564
 3925SOL    HW113216   1.656   0.615   5.249 -1.4890  0.4533 -0.6383
 3925SOL    HW213217   1.713   0.476   5.228  0.4810  1.2884 -0.9849
 3926SOL     OW13218   5.762   3.786  10.482 -0.1193  0.4876  0.3568
 3926SOL    HW113219   5.742   3.694  10.461  0.4510  0.0162  1.7410
 3926SOL    HW213220   5.798   3.821  10.401 -1.8624 -0.0234 -0.6999
 3927SOL     OW13221   7.679   1.194   1.325  0.0536  0.5013  0.3117
 3927SOL    HW113222   7.648   1.271   1.374 -0.4441  0.5708 -0.1028
 3927SOL    HW213223   7.630   1.121   1.362 -0.2501  0.5397 -0.0146
 3928SOL     OW13224   1.524   1.768   9.316 -0.1778 -0.4853  0.2309
 3928SOL    HW113225   1.481   1.745   9.233 -0.5178  0.6907  0.0704
 3928SOL    HW213226   1.456   1.812   9.367  0.6272  0.8168  0.2298
 3929SOL     OW13227   7.852   6.120   7.956  0.2356 -0.1071 -0.0502
 3929SOL    HW113228   7.889   6.201   7.922  1.6847 -0.9628 -0.5868
 3929SOL    HW213229   7.825   6.142   8.046 -0.6199  1.2915 -0.6055
 3930SOL     OW13230   2.016   4.495   9.483  0.2961 -0.1495  0.3276
 3930SOL    HW113231   1.967   4.412   9.480  1.9625 -1.2892  2.0733
 3930SOL    HW213232   1.955   4.557   9.523 -0.3595 -1.0401  0.7491
 3931SOL     OW13233   4.096   7.830   7.886 -0.0003  0.3190  0.2207
 3931SOL    HW113234   4.023   7.891   7.901 -0.0262  0.0161  1.4685
 3931SOL    HW213235   4.069   7.750   7.931  1.4295  0.4665  1.3917
 3932SOL     OW13236   2.970   5.363   2.395 -0.4787  0.2720  0.5737
 3932SOL    HW113237   2.910   5.429   2.360 -0.8724  0.8511  2.2438
 3932SOL    HW213238   2.939   5.280   2.358 -0.0861  0.9659 -1.4113
 3933SOL     OW13239   5.178   3.250   0.215  0.1619  0.3502 -0.1510
 3933SOL    HW113240   5.142   3.171   0.174 -0.2954  0.0947  0.7229
 3933SOL    HW213241   5.219   3.219   0.295 -0.6280  1.0747  0.5552
 3934SOL     OW13242   2.228   3.682   4.099 -0.0635  0.2230  0.1751
 3934SOL    HW113243   2.200   3.650   4.184 -0.1168 -0.6198 -0.1506
 3934SOL    HW213244   2.308   3.632   4.080  0.6903  1.3501  0.3157
 3935SOL     OW13245   6.503   7.154   5.951  0.1326 -0.6298 -0.2200
 3935SOL    HW113246   6.581   7.178   5.901  0.3741 -0.0449  0.4273
 3935SOL    HW213247   6.430   7.178   5.895  0.3594  1.5822  0.3568
 3936SOL     OW13248   4.920   4.459   5.518  0.3730 -0.1211 -0.6785
 3936SOL    HW113249   4.860   4.534   5.523 -0.1965 -0.6474  1.7256
 3936SOL    HW213250   4.941   4.452   5.425  0.9496  3.4085 -0.9788
 3937SOL     OW13251   5.872   0.090   0.412  0.2017  0.2375  0.5022
 3937SOL    HW113252   5.906   0.104   0.324  1.5007 -0.3079  0.8863
 3937SOL    HW213253   5.802   0.025   0.401 -0.2619  0.8505 -0.2261
 3938SOL     OW13254   1.200   2.541   7.378 -0.5869  0.1035  0.1620
 3938SOL    HW113255   1.243   2.618   7.341 -0.8594 -0.3429 -1.1076
 3938SOL    HW213256   1.170   2.570   7.464 -0.5689  1.3770 -0.2391
 3939SOL     OW13257   5.431   3.437   6.645  0.9010  0.6101 -0.1401
 3939SOL    HW113258   5.383   3.421   6.726  3.1262  0.3720  1.2297
 3939SOL    HW213259   5.406   3.365   6.587  0.8422 -0.4229  1.1177
 3940SOL     OW13260   6.681   6.902   5.729 -0.4328  0.1385 -0.9190
 3940SOL    HW113261   6.700   6.843   5.802 -0.8442  0.3215 -0.6586
 3940SOL    HW213262   6.589   6.884   5.707 -0.6425  0.8673 -0.6643
 3941SOL     OW13263   3.185   7.649  10.591  0.1074 -0.2618  0.2238
 3941SOL    HW113264   3.219   7.637  10.680 -0.5707  0.5722  0.6001
 3941SOL    HW213265   3.204   7.566  10.547  0.3316 -0.7271  1.1840
 3942SOL     OW13266   5.552   1.975  10.672  0.0128  0.1794  0.0816
 3942SOL    HW113267   5.635   1.927  10.664 -0.7760 -1.3351  0.4662
 3942SOL    HW213268   5.504   1.951  10.592 -1.2514 -1.4797  1.2718
 3943SOL     OW13269   6.284   0.323   7.789 -0.2748  0.9067  0.2340
 3943SOL    HW113270   6.244   0.407   7.770 -0.1089  0.4918 -2.1727
 3943SOL    HW213271   6.372   0.328   7.753 -0.2937 -0.3246 -0.0495
 3944SOL     OW13272   2.785   3.506  10.874 -0.5223 -0.8187 -0.1827
 3944SOL    HW113273   2.857   3.493  10.936 -0.5604 -2.8606 -0.5080
 3944SOL    HW213274   2.743   3.587  10.903  0.5177 -0.7998  1.3901
 3945SOL     OW13275   6.166   1.687   8.834  0.0189  0.2307  0.1161
 3945SOL    HW113276   6.083   1.661   8.794  0.4067 -0.1651 -0.4484
 3945SOL    HW213277   6.149   1.774   8.871 -0.9896 -0.3361  1.0654
 3946SOL     OW13278   2.060   0.625   4.676 -0.0220  0.5600 -0.0128
 3946SOL    HW113279   1.976   0.669   4.686  0.7517  1.9782  0.5791
 3946SOL    HW213280   2.049   0.568   4.600 -1.7367  0.1424  0.5121
 3947SOL     OW13281   0.303   2.535   5.345 -0.5056 -0.0213  0.0268
 3947SOL    HW113282   0.330   2.511   5.256  0.9994  2.6404 -0.3462
 3947SOL    HW213283   0.366   2.491   5.402 -0.1674 -0.0468 -0.3618
 3948SOL     OW13284   0.236   5.541  11.895  0.3656  0.3777 -0.1478
 3948SOL    HW113285   0.243   5.633  11.921 -1.4970  0.6623 -0.4982
 3948SOL    HW213286   0.188   5.500  11.967 -3.0384  0.7481 -1.9771
 3949SOL     OW13287   0.725   7.932   5.290  0.6132  0.0062  0.6606
 3949SOL    HW113288   0.753   7.919   5.380  0.7450 -0.0469  0.6129
 3949SOL    HW213289   0.655   7.868   5.277  1.9793 -1.4321  0.1027
 3950SOL     OW13290   1.394   4.472   0.234  0.7589 -0.4270  0.1952
 3950SOL    HW113291   1.458   4.525   0.282 -0.5474 -0.0128  1.5460
 3950SOL    HW213292   1.318   4.468   0.292 -1.4275  1.1957 -2.3759
 3951SOL     OW13293   2.735   2.384   3.384 -0.7942 -0.1619  0.1744
 3951SOL    HW113294   2.792   2.318   3.423  0.3870  1.0801  0.6537
 3951SOL    HW213295   2.706   2.437   3.458 -0.9425  0.4311 -0.2983
 3952SOL     OW13296   6.983   2.633   0.410  0.1044  0.2581 -0.4806
 3952SOL    HW113297   7.044   2.678   0.351  0.8909 -1.3379 -0.9728
 3952SOL    HW213298   7.033   2.620   0.491 -1.1484  2.9112  0.8155
 3953SOL     OW13299   5.363   4.665   9.236 -0.2971 -0.5950 -0.5182
 3953SOL    HW113300   5.276   4.628   9.252  0.0896 -2.8445 -2.9726
 3953SOL    HW213301   5.365   4.683   9.142  0.8352  2.5733 -0.0119
 3954SOL     OW13302   7.805   0.568   2.284  0.2592  0.2414  0.2084
 3954SOL    HW113303   7.727   0.547   2.234 -1.3379 -0.3253  2.7697
 3954SOL    HW213304   7.800   0.663   2.298  1.0233  0.5029 -1.0971
 3955SOL     OW13305   7.111   5.763   1.202 -0.5938  0.2043  0.1553
 3955SOL    HW113306   7.069   5.847   1.184  0.7913  0.5007 -1.9580
 3955SOL    HW213307   7.205   5.781   1.193 -0.2806 -1.5871 -0.4449
 3956SOL     OW13308   2.652   3.214  10.331  0.2770  0.4640 -0.5160
 3956SOL    HW113309   2.664   3.173  10.417 -3.8681  0.3617  0.2330
 3956SOL    HW213310   2.674   3.306  10.346 -0.7424  0.5249  0.8268
 3957SOL     OW13311   5.836   2.755   9.220 -0.3759 -0.2565 -0.0063
 3957SOL    HW113312   5.890   2.742   9.297 -0.3304  1.5693  0.3144
 3957SOL    HW213313   5.851   2.677   9.166 -1.3127 -2.1404  2.3104
 3958SOL     OW13314   6.204   0.570   5.082  0.1016  0.0071  0.4154
 3958SOL    HW113315   6.268   0.599   5.017  0.5957  1.7436  1.5884
 3958SOL    HW213316   6.138   0.639   5.083 -0.8488 -0.8845  0.4932
 3959SOL     OW13317   1.187   4.420   7.412 -0.7902 -0.5175  0.2468
 3959SOL    HW113318   1.195   4.515   7.406  2.4624 -0.6990 -0.0419
 3959SOL    HW213319   1.141   4.394   7.331 -1.1402  0.7448  0.0274
 3960SOL     OW13320   5.790   6.114   4.133  0.0259 -0.1049  0.0212
 3960SOL    HW113321   5.712   6.108   4.077  1.1553 -1.3664 -1.4982
 3960SOL    HW213322   5.848   6.175   4.086  0.6787 -0.5658  0.2212
 3961SOL     OW13323   3.661   2.400   7.288 -0.5194  0.7613  0.0715
 3961SOL    HW113324   3.734   2.411   7.348 -0.3535 -1.0200  0.2512
 3961SOL    HW213325   3.700   2.368   7.207 -1.0515  0.2370  0.0170
 3962SOL     OW13326   0.792   0.531   9.671 -0.6293  0.3520 -0.2771
 3962SOL    HW113327   0.753   0.580   9.598  2.5642 -0.3899 -2.6857
 3962SOL    HW213328   0.778   0.439   9.648  0.7663  0.1073 -0.2329
 3963SOL     OW13329   2.180   6.129  10.294 -0.0682 -0.0696 -0.1585
 3963SOL    HW113330   2.088   6.110  10.317  0.4078 -2.7252 -0.0658
 3963SOL    HW213331   2.211   6.047  10.255  3.0372 -0.2285  2.3138
 3964SOL     OW13332   4.232   0.544  12.232  0.5139  0.0584  0.0323
 3964SOL    HW113333   4.142   0.512  12.243  0.5126 -0.5593 -1.4489
 3964SOL    HW213334   4.285   0.485  12.285  0.2237 -0.7854 -0.5864
 3965SOL     OW13335   3.140   1.034   0.813  0.8141 -0.2119 -0.2673
 3965SOL    HW113336   3.191   1.041   0.893  0.1147  0.0935  0.1591
 3965SOL    HW213337   3.070   1.099   0.823 -0.5064 -1.5734 -0.1937
 3966SOL     OW13338   7.876   3.621   2.844 -0.3146 -0.0659 -0.2023
 3966SOL    HW113339   7.884   3.572   2.762 -0.1014  1.7717 -1.3416
 3966SOL    HW213340   7.782   3.619   2.863 -0.5351  0.4641 -1.1453
 3967SOL     OW13341   6.847   5.205   8.042 -0.3661  0.3724 -0.3954
 3967SOL    HW113342   6.903   5.205   8.120  1.0823  0.1505 -1.3915
 3967SOL    HW213343   6.813   5.115   8.038 -1.6866  0.7990  0.8099
 3968SOL     OW13344   4.365   3.023   7.660 -0.5325 -0.4446  0.5873
 3968SOL    HW113345   4.426   3.096   7.645 -1.7589  0.1486 -2.1934
 3968SOL    HW213346   4.341   2.995   7.572 -1.5493 -3.0170  1.6106
 3969SOL     OW13347   1.633   0.757   1.539 -0.4991  0.3587  1.2716
 3969SOL    HW113348   1.547   0.724   1.563 -0.6139  0.3486  0.8471
 3969SOL    HW213349   1.619   0.804   1.457 -0.3234  1.4058  1.8210
 3970SOL     OW13350   0.775   3.285   3.905  0.1173 -0.2318 -0.3264
 3970SOL    HW113351   0.820   3.329   3.978  0.0538  1.2470 -1.1270
 3970SOL    HW213352   0.795   3.340   3.829 -2.6813  0.2889 -0.7946
 3971SOL     OW13353   3.907   7.402   6.030  0.5376 -1.0517  0.0877
 3971SOL    HW113354   3.825   7.415   6.078  0.0055  0.4579 -1.1431
 3971SOL    HW213355   3.962   7.476   6.056  0.0265  0.1102 -1.9785
 3972SOL     OW13356   2.395   1.552   5.904 -0.3987  0.2234 -0.3167
 3972SOL    HW113357   2.310   1.594   5.905 -0.1200  0.8088 -0.5525
 3972SOL    HW213358   2.404   1.517   5.815  0.0319  1.0699 -0.6170
 3973SOL     OW13359   0.500   7.822  10.268 -0.0458 -0.2803  1.1491
 3973SOL    HW113360   0.563   7.842  10.198 -0.7960  0.2104  0.6004
 3973SOL    HW213361   0.466   7.735  10.247 -3.6092  1.5346 -1.7494
 3974SOL     OW13362   6.879   2.964   0.038 -0.4820 -0.3209  0.2248
 3974SOL    HW113363   6.926   2.986   0.118 -1.1046  0.8740  0.2853
 3974SOL    HW213364   6.827   2.887   0.060  1.4510 -1.7183  0.1399
 3975SOL     OW13365   1.999   1.664   7.827 -0.1537  0.2866 -0.3325
 3975SOL    HW113366   1.959   1.645   7.743  0.0147  0.8515 -0.5416
 3975SOL    HW213367   2.050   1.585   7.848  0.1925  0.3316 -0.9874
 3976SOL     OW13368   2.481   5.729  10.041 -0.5890 -0.4065  0.2651
 3976SOL    HW113369   2.545   5.798  10.021 -0.5358  0.0942  2.0180
 3976SOL    HW213370   2.532   5.662  10.087 -1.3566  0.1431  1.9747
 3977SOL     OW13371   5.784   2.893   0.494  0.2882  0.0074  0.2289
 3977SOL    HW113372   5.748   2.896   0.583  0.2337  0.2434  0.1984
 3977SOL    HW213373   5.718   2.935   0.440 -0.3896 -1.5191 -0.1699
 3978SOL     OW13374   1.807   6.093   5.951 -0.3064  0.0649 -1.0079
 3978SOL    HW113375   1.771   6.169   5.996  0.2990  0.6406 -1.4769
 3978SOL    HW213376   1.730   6.044   5.921 -0.6992  0.4650 -0.6637
 3979SOL     OW13377   1.439   3.944   8.541 -0.3135  0.7944  0.0581
 3979SOL    HW113378   1.474   4.016   8.593 -0.2707  0.6347  0.2551
 3979SOL    HW213379   1.478   3.865   8.581 -1.3722  0.5647  0.6625
 3980SOL     OW13380   0.838   4.735   7.828  0.1826 -0.3454  0.2403
 3980SOL    HW113381   0.770   4.715   7.763  1.2325  0.6273 -1.2115
 3980SOL    HW213382   0.874   4.649   7.852 -0.1485 -0.7144 -0.5434
 3981SOL     OW13383   3.153   6.383  10.090 -0.5092  0.5199  0.2801
 3981SOL    HW113384   3.245   6.366  10.110 -0.0504 -1.3369 -2.7558
 3981SOL    HW213385   3.105   6.347  10.165  1.1631  0.9633  1.6214
 3982SOL     OW13386   5.484   6.273  11.195  0.2782 -0.2202  0.3172
 3982SOL    HW113387   5.564   6.234  11.160 -0.6193 -1.1298 -0.7777
 3982SOL    HW213388   5.496   6.270  11.290  1.5414 -0.3434  0.1690
 3983SOL     OW13389   3.610   6.030   9.053 -0.1339  0.3191  0.2337
 3983SOL    HW113390   3.705   6.022   9.063 -0.2108 -0.5475  0.3792
 3983SOL    HW213391   3.575   5.952   9.096 -0.8592  0.1551 -0.6216
 3984SOL     OW13392   2.642   4.137   2.911  0.5549  1.4567 -0.6319
 3984SOL    HW113393   2.593   4.117   2.832  0.3576  2.5343 -0.7839
 3984SOL    HW213394   2.598   4.086   2.980  0.9190  0.2747 -1.2450
 3985SOL     OW13395   2.934   5.440  11.857 -0.0111  0.1278 -0.4982
 3985SOL    HW113396   2.938   5.487  11.774 -1.6996 -0.7403 -1.1234
 3985SOL    HW213397   2.923   5.508  11.923 -1.9990  0.6754 -1.3322
 3986SOL     OW13398   3.129   6.494   2.219 -0.1419  0.0886  0.0150
 3986SOL    HW113399   3.128   6.538   2.134  1.1335 -0.6199 -0.4043
 3986SOL    HW213400   3.053   6.528   2.265 -0.6118  0.8141 -1.2486
 3987SOL     OW13401   6.613   2.059   8.053  0.8742  0.7255 -0.0264
 3987SOL    HW113402   6.679   2.101   7.998 -1.1758  1.2052 -2.3001
 3987SOL    HW213403   6.613   2.110   8.134  0.4930  3.3720 -1.5736
 3988SOL     OW13404   5.496   7.855  12.133 -0.0589 -0.2953  0.0168
 3988SOL    HW113405   5.551   7.920  12.089  1.7968 -1.7874 -0.0079
 3988SOL    HW213406   5.422   7.842  12.073 -0.5763  1.8618  0.1122
 3989SOL     OW13407   0.065   0.178   2.382 -0.1095 -0.5314  0.5020
 3989SOL    HW113408   0.043   0.168   2.289  1.4510  0.0890  0.0341
 3989SOL    HW213409   0.160   0.184   2.384 -0.0911 -0.8652  2.1948
 3990SOL     OW13410   3.645   5.300   4.308  0.0032 -0.0952  0.0304
 3990SOL    HW113411   3.738   5.310   4.328  0.0810 -0.3941 -0.1689
 3990SOL    HW213412   3.600   5.350   4.376  0.2921 -0.4160  0.4590
 3991SOL     OW13413   1.020   7.654  10.062 -0.2181 -0.1121 -0.1052
 3991SOL    HW113414   1.041   7.670  10.154 -1.6494  0.0298  0.2087
 3991SOL    HW213415   1.106   7.650  10.019  0.4322  1.1236  1.0024
 3992SOL     OW13416   1.469   4.649   2.383 -0.2118 -0.2357  0.1100
 3992SOL    HW113417   1.526   4.718   2.350  0.6694 -1.2925 -0.6526
 3992SOL    HW213418   1.528   4.577   2.405 -1.1815 -1.1003 -0.0140
 3993SOL     OW13419   1.292   2.761   3.076 -0.4861  1.0106  0.5201
 3993SOL    HW113420   1.345   2.706   3.019  0.0560  0.0879  1.8548
 3993SOL    HW213421   1.266   2.702   3.148 -0.0937  2.4107  1.8610
 3994SOL     OW13422   1.449   1.374   5.970  0.1886 -0.6561 -0.3441
 3994SOL    HW113423   1.448   1.341   6.060 -2.1929  0.3996  0.0855
 3994SOL    HW213424   1.360   1.407   5.955  1.0058  0.7933 -2.4993
 3995SOL     OW13425   1.946   3.279   2.226 -0.3592 -0.2488  0.5431
 3995SOL    HW113426   1.881   3.225   2.271 -0.1046  1.0990  2.7241
 3995SOL    HW213427   2.029   3.256   2.267  0.0282  0.4118  0.1566
 3996SOL     OW13428   6.458   5.097  10.427 -0.0299 -0.3963  0.0173
 3996SOL    HW113429   6.444   5.008  10.459 -1.6412  0.4236  1.7765
 3996SOL    HW213430   6.381   5.116  10.374  0.5126 -0.1882 -0.7067
 3997SOL     OW13431   2.701   1.173   5.955  0.3822  0.2791  0.2268
 3997SOL    HW113432   2.627   1.199   6.009  0.9238 -0.8351  1.6038
 3997SOL    HW213433   2.672   1.093   5.911  0.6558 -0.0086  0.5586
 3998SOL     OW13434   6.977   3.902   1.392 -0.1763  0.3526  0.1775
 3998SOL    HW113435   6.996   3.926   1.301 -0.1945  1.1489  0.3772
 3998SOL    HW213436   7.048   3.940   1.443 -0.5485  0.5264  0.5756
 3999SOL     OW13437   7.320   2.107  10.818 -0.1890  0.3195  0.4849
 3999SOL    HW113438   7.269   2.042  10.868  0.3623 -0.5939 -0.1269
 3999SOL    HW213439   7.403   2.064  10.801  0.0069  1.0159 -0.3420
 4000SOL     OW13440   4.146   0.144   2.365 -0.2023 -0.2875  0.3377
 4000SOL    HW113441   4.086   0.211   2.332 -1.1055 -1.4236 -0.4359
 4000SOL    HW213442   4.138   0.150   2.461  0.6316  1.4495  0.3485
 4001SOL     OW13443   3.227   5.536  10.189  0.4336 -0.0158 -0.2746
 4001SOL    HW113444   3.232   5.527  10.093 -0.0903 -1.2702 -0.2002
 4001SOL    HW213445   3.300   5.594  10.211  1.7708 -1.2738 -1.2474
 4002SOL     OW13446   7.048   2.591  12.094 -0.5636 -0.3084 -0.8032
 4002SOL    HW113447   6.987   2.587  12.167 -0.0671  0.6149 -0.3297
 4002SOL    HW213448   6.992   2.594  12.016 -1.1626  1.0785 -0.3552
 4003SOL     OW13449   0.939   5.456   8.925 -0.1020 -0.0972 -0.4306
 4003SOL    HW113450   0.995   5.461   9.002 -0.3905  0.1904 -0.2398
 4003SOL    HW213451   0.956   5.537   8.877 -0.5885  0.1384 -0.2107
 4004SOL     OW13452   3.785   1.270   8.626 -0.3044 -0.1415 -0.0598
 4004SOL    HW113453   3.861   1.251   8.571 -0.7522 -2.2598 -0.0285
 4004SOL    HW213454   3.816   1.257   8.715 -0.5889 -0.6450 -0.0294
 4005SOL     OW13455   5.547   7.419   9.307  1.0576 -0.7217 -0.0228
 4005SOL    HW113456   5.540   7.480   9.380  1.5665 -1.0028  0.2690
 4005SOL    HW213457   5.498   7.342   9.335 -0.2545 -0.1753 -0.7092
 4006SOL     OW13458   6.128   0.443   5.580  0.1696  0.2220 -0.2417
 4006SOL    HW113459   6.138   0.351   5.555 -0.5515 -0.4417  1.7632
 4006SOL    HW213460   6.061   0.477   5.521  0.4382 -0.5194 -0.9913
 4007SOL     OW13461   2.580   7.563  10.140 -0.1616  0.1393  0.5919
 4007SOL    HW113462   2.575   7.540  10.048 -1.3633 -0.6513  0.8250
 4007SOL    HW213463   2.575   7.659  10.141 -2.0731  0.0849 -0.0973
 4008SOL     OW13464   0.752   2.650   5.493 -0.2437  0.0283 -0.4174
 4008SOL    HW113465   0.828   2.612   5.450  0.3514  1.1145 -0.3439
 4008SOL    HW213466   0.784   2.731   5.532 -1.2166  0.0213  0.4409
 4009SOL     OW13467   6.397   6.424   4.394 -0.2791  0.1766  0.6407
 4009SOL    HW113468   6.480   6.407   4.439  0.7638  0.8063 -0.9490
 4009SOL    HW213469   6.352   6.340   4.395 -0.0995  0.0702  2.4353
 4010SOL     OW13470   3.135   6.668   1.533  0.0299  0.3081 -0.4128
 4010SOL    HW113471   3.096   6.733   1.592  0.1309  0.5940 -0.6606
 4010SOL    HW213472   3.075   6.662   1.459 -0.2136 -0.2197 -0.1775
 4011SOL     OW13473   4.754   1.459  10.006  0.2125 -0.3609  0.7109
 4011SOL    HW113474   4.713   1.542  10.029 -0.9335 -0.7425  0.1111
 4011SOL    HW213475   4.685   1.409   9.962  1.6287 -0.5194 -1.5142
 4012SOL     OW13476   2.277   5.365   8.897 -0.8733 -0.2102  0.7371
 4012SOL    HW113477   2.311   5.284   8.936 -1.3074 -0.7869 -0.0521
 4012SOL    HW213478   2.325   5.374   8.815  0.4963  1.3412  1.6447
 4013SOL     OW13479   5.864   3.199   5.235  0.5349  0.4624 -0.0773
 4013SOL    HW113480   5.895   3.238   5.316  1.3217 -1.3251  0.5375
 4013SOL    HW213481   5.771   3.222   5.231  0.6396  1.1361  0.9798
 4014SOL     OW13482   6.328   1.457   0.087 -0.1057 -0.4668  0.5043
 4014SOL    HW113483   6.402   1.399   0.069 -0.1114  0.2056 -1.9330
 4014SOL    HW213484   6.368   1.543   0.103 -0.1898 -0.7786  2.8087
 4015SOL     OW13485   1.448   7.427  10.712 -0.0664 -0.7593 -0.2123
 4015SOL    HW113486   1.427   7.343  10.673 -0.6649 -0.3355 -0.8302
 4015SOL    HW213487   1.447   7.489  10.639 -0.1875 -0.1226  0.3172
 4016SOL     OW13488   2.271   0.387   0.700 -0.4485 -0.8153 -0.3025
 4016SOL    HW113489   2.348   0.330   0.707  0.2606  0.2957  1.7809
 4016SOL    HW213490   2.305   0.466   0.657 -1.1691 -1.4205 -2.1147
 4017SOL     OW13491   6.771   3.663   1.410  0.1236  0.4393  0.0972
 4017SOL    HW113492   6.756   3.637   1.501 -0.7811 -1.3218 -0.5076
 4017SOL    HW213493   6.854   3.620   1.387  0.4028  0.9653  0.1053
 4018SOL     OW13494   6.322   6.694   6.652  0.2451 -0.1951  0.2395
 4018SOL    HW113495   6.348   6.751   6.724 -2.1899 -0.0319  1.1021
 4018SOL    HW213496   6.289   6.753   6.585  0.0855 -0.4762  0.0679
 4019SOL     OW13497   3.610   7.346   1.524  0.0199 -0.8323  0.6930
 4019SOL    HW113498   3.516   7.340   1.537 -0.1037  0.7708  0.7158
 4019SOL    HW213499   3.648   7.315   1.606 -0.4702 -1.8085  0.5580
 4020SOL     OW13500   7.861   0.163   0.460 -0.0843  0.2496 -0.0831
 4020SOL    HW113501   7.860   0.242   0.514 -0.3463  0.4569 -0.3835
 4020SOL    HW213502   7.772   0.128   0.467  0.0696 -0.0974  0.1601
 4021SOL     OW13503   5.979   5.611   5.127 -0.2579  0.4069  0.4128
 4021SOL    HW113504   6.073   5.593   5.133 -0.6258 -2.3094 -0.7370
 4021SOL    HW213505   5.973   5.680   5.060  0.8431 -0.3547 -0.5156
 4022SOL     OW13506   1.336   7.132   8.856 -0.7500 -0.6294  0.2450
 4022SOL    HW113507   1.390   7.187   8.800 -2.1599  0.8364  0.2422
 4022SOL    HW213508   1.360   7.157   8.946 -0.3540 -1.0767  0.2651
 4023SOL     OW13509   6.501   1.435   1.493 -0.5651 -0.2397  0.1734
 4023SOL    HW113510   6.450   1.438   1.412 -1.3351  1.5371  0.6664
 4023SOL    HW213511   6.583   1.393   1.469 -0.3829  1.1121 -1.7732
 4024SOL     OW13512   2.659   3.032   7.987 -0.3555 -0.0796 -0.1437
 4024SOL    HW113513   2.702   3.046   8.072 -0.4974 -2.2998  0.3606
 4024SOL    HW213514   2.580   2.983   8.009 -1.1399  0.5681 -1.4439
 4025SOL     OW13515   7.106   7.203  12.087 -0.3187 -0.2632  0.2125
 4025SOL    HW113516   7.192   7.212  12.128  0.6917  0.3799 -1.8889
 4025SOL    HW213517   7.059   7.142  12.144  0.6992  1.0862  2.6510
 4026SOL     OW13518   2.634   0.728   5.324  0.6603 -0.5889 -0.0673
 4026SOL    HW113519   2.589   0.782   5.389 -1.1949 -2.1034 -0.0340
 4026SOL    HW213520   2.616   0.771   5.241 -0.3449 -0.8329  0.0156
 4027SOL     OW13521   2.919   2.202   3.440 -0.2659 -0.0849  0.0844
 4027SOL    HW113522   2.969   2.159   3.510  0.0331 -0.9848 -0.6634
 4027SOL    HW213523   2.910   2.135   3.372  0.0179  0.9695 -1.0229
 4028SOL     OW13524   0.008   3.883   2.843  0.8404  0.3040  0.4167
 4028SOL    HW113525  -0.038   3.943   2.784 -0.4029  0.3657  1.4194
 4028SOL    HW213526  -0.006   3.797   2.805 -0.8909  0.2186  1.1674
 4029SOL     OW13527   6.478   6.177   9.417  0.1069  0.5146  0.6004
 4029SOL    HW113528   6.417   6.169   9.344  0.6908 -0.2584  0.1938
 4029SOL    HW213529   6.552   6.227   9.381  0.4439  0.0382  0.6300
 4030SOL     OW13530   6.136   3.145   8.199  0.2048 -0.3526 -0.7495
 4030SOL    HW113531   6.126   3.051   8.214  1.1538 -0.5051 -1.0044
 4030SOL    HW213532   6.209   3.152   8.137  1.4317  0.6219  0.7272
 4031SOL     OW13533   0.361   1.984   8.985  0.1052  0.1133 -0.6801
 4031SOL    HW113534   0.452   1.961   9.003 -0.9248 -4.1609  0.1586
 4031SOL    HW213535   0.323   2.002   9.071 -0.0115  1.4039 -0.9795
 4032SOL     OW13536   2.927   6.625  10.916  0.0724 -0.3289  0.7610
 4032SOL    HW113537   2.943   6.554  10.853 -0.5406 -0.8928  1.2255
 4032SOL    HW213538   2.972   6.596  10.996  2.9664  1.4879 -0.0346
 4033SOL     OW13539   7.472   4.743   3.641 -0.1352 -0.2320  0.3367
 4033SOL    HW113540   7.524   4.669   3.672 -0.2617  0.1932  1.5855
 4033SOL    HW213541   7.537   4.806   3.610 -0.0306 -1.7968 -3.1850
 4034SOL     OW13542   4.127   2.764   1.193 -0.1717  0.4496  0.3253
 4034SOL    HW113543   4.149   2.683   1.146  0.2602  0.4600  0.5000
 4034SOL    HW213544   4.204   2.820   1.180  0.3194  0.1411  1.7370
 4035SOL     OW13545   4.283   7.261   3.140  0.1173 -0.0819  0.3899
 4035SOL    HW113546   4.264   7.308   3.059 -0.8998  0.4175  0.9008
 4035SOL    HW213547   4.332   7.324   3.193  1.7215 -0.7660 -0.2285
 4036SOL     OW13548   4.019   3.734   7.174  0.1555  0.4435  0.3502
 4036SOL    HW113549   3.934   3.716   7.213  0.0726  2.8411  1.4728
 4036SOL    HW213550   4.039   3.656   7.122 -2.4990 -0.3492  0.3892
 4037SOL     OW13551   7.295   5.706  11.071  0.5607 -0.5708  0.1485
 4037SOL    HW113552   7.335   5.791  11.090 -0.7541 -0.2015  1.4846
 4037SOL    HW213553   7.369   5.648  11.056  1.5297  0.5363  0.4591
 4038SOL     OW13554   5.155   0.498   3.606 -0.0944  0.1668 -0.0021
 4038SOL    HW113555   5.248   0.478   3.609 -0.3030 -1.0495 -0.8584
 4038SOL    HW213556   5.136   0.513   3.514 -0.8811 -0.3156  0.0670
 4039SOL     OW13557   3.439   1.739   2.777 -0.2954  0.8578  0.1754
 4039SOL    HW113558   3.395   1.794   2.842 -2.3059  0.5369 -0.8295
 4039SOL    HW213559   3.440   1.792   2.698  0.1931  0.4397 -0.1036
 4040SOL     OW13560   3.269   5.372   3.466  0.1223 -0.7216 -0.0374
 4040SOL    HW113561   3.334   5.417   3.412 -0.5629 -0.0686 -0.3224
 4040SOL    HW213562   3.214   5.324   3.403  0.3315 -1.2960  0.2056
 4041SOL     OW13563   2.313   4.720   3.120  0.5470 -0.2405 -0.4020
 4041SOL    HW113564   2.406   4.730   3.098  0.2951  1.6832 -0.7062
 4041SOL    HW213565   2.311   4.645   3.180  2.3049 -0.2677 -0.3306
 4042SOL     OW13566   3.544   5.615   3.596 -0.2184  0.3699 -0.0717
 4042SOL    HW113567   3.520   5.523   3.606  0.6109  0.0887 -0.5737
 4042SOL    HW213568   3.629   5.613   3.552  0.2772  1.3607  0.8122
 4043SOL     OW13569   0.233   0.368  10.016  0.2824 -0.4812 -0.3639
 4043SOL    HW113570   0.308   0.389   9.961  0.9373 -2.6177 -0.3465
 4043SOL    HW213571   0.265   0.377  10.105  0.1909 -0.3386 -0.3445
 4044SOL     OW13572   0.211   6.722   9.619  0.3595 -0.0357  0.2689
 4044SOL    HW113573   0.254   6.768   9.691  1.9839 -0.4131 -0.4180
 4044SOL    HW213574   0.118   6.724   9.641  0.8332 -0.3401  2.4798
 4045SOL     OW13575   2.030   1.651   5.610  1.0828 -0.3616  0.5875
 4045SOL    HW113576   1.951   1.655   5.665  0.6827  0.4613 -0.0149
 4045SOL    HW213577   1.998   1.673   5.522  2.3266  2.4794  0.7214
 4046SOL     OW13578   4.804   7.589  11.401 -0.5109  0.2586 -0.2267
 4046SOL    HW113579   4.762   7.675  11.399  0.0982  0.5468 -2.1307
 4046SOL    HW213580   4.835   7.574  11.312 -0.3965 -1.8557  0.1040
 4047SOL     OW13581   3.343   4.813   1.523  0.4471  0.0533  0.3300
 4047SOL    HW113582   3.273   4.808   1.589  0.8993 -0.8899  0.7569
 4047SOL    HW213583   3.406   4.875   1.561 -0.3306  1.2621 -0.2596
 4048SOL     OW13584   7.385   6.614  10.543  0.4087 -0.1720  0.6096
 4048SOL    HW113585   7.475   6.582  10.552 -0.1622 -1.7077  1.1616
 4048SOL    HW213586   7.392   6.708  10.554  1.9083 -0.2996  0.9854
 4049SOL     OW13587   3.750   3.798   7.892 -0.0640  0.2486  0.3102
 4049SOL    HW113588   3.689   3.726   7.879 -0.4837  0.3324  1.6376
 4049SOL    HW213589   3.695   3.875   7.900  0.3897  0.7699 -1.2082
 4050SOL     OW13590   6.764   1.806   3.278  0.6121  0.0657  0.3700
 4050SOL    HW113591   6.678   1.768   3.260 -0.7025  2.9614 -0.1196
 4050SOL    HW213592   6.788   1.771   3.364 -1.3606 -0.4021  0.7831
 4051SOL     OW13593   2.356   5.213   6.662  0.2525 -0.0864  0.1506
 4051SOL    HW113594   2.270   5.174   6.648  1.1219 -1.7963 -0.8469
 4051SOL    HW213595   2.376   5.194   6.754 -0.4554  0.4150  0.4184
 4052SOL     OW13596   0.264   0.162  11.894  0.7229  0.4650  0.0066
 4052SOL    HW113597   0.183   0.185  11.847  0.5533 -0.7640 -0.3305
 4052SOL    HW213598   0.283   0.072  11.867  1.3534  0.1930  1.2977
 4053SOL     OW13599   6.872   5.838   7.251  0.4513  0.0330 -0.5373
 4053SOL    HW113600   6.812   5.911   7.269  0.3546  0.3687 -2.0340
 4053SOL    HW213601   6.825   5.784   7.187  2.1811  0.9820 -2.7279
 4054SOL     OW13602   6.144   7.003  12.267 -0.0556 -0.5094  0.0540
 4054SOL    HW113603   6.090   7.028  12.192  1.2930 -0.5807 -0.9751
 4054SOL    HW213604   6.187   7.084  12.295 -1.2866 -0.2721  1.4252
 4055SOL     OW13605   4.043   6.589   5.839  0.1185 -0.1563 -0.2946
 4055SOL    HW113606   3.987   6.523   5.798  0.6207 -1.5295  1.1375
 4055SOL    HW213607   4.027   6.580   5.933  1.1895  0.8553  0.0108
 4056SOL     OW13608   1.487   6.141  12.093 -0.2466 -0.4078  0.8426
 4056SOL    HW113609   1.531   6.062  12.125 -0.0854  0.4374  2.8460
 4056SOL    HW213610   1.494   6.135  11.997 -0.0638 -2.6921  0.9370
 4057SOL     OW13611   0.083   7.259   9.646  0.4242  0.6165 -0.4070
 4057SOL    HW113612   0.078   7.287   9.554 -0.9278 -2.9977 -1.6207
 4057SOL    HW213613   0.008   7.300   9.688 -0.3239  0.4799 -1.5570
 4058SOL     OW13614   1.464   4.246   4.274 -1.0765 -0.2172  0.5453
 4058SOL    HW113615   1.443   4.154   4.288  0.4112 -0.7642 -0.5288
 4058SOL    HW213616   1.416   4.270   4.195 -0.7178 -0.3465  0.2879
 4059SOL     OW13617   2.161   3.694   0.269 -0.8311  0.5297 -0.3005
 4059SOL    HW113618   2.207   3.775   0.290  0.6027 -0.6280  1.4071
 4059SOL    HW213619   2.215   3.652   0.202 -2.4459  1.6610 -2.4216
 4060SOL     OW13620   0.076   6.774   2.445  0.2158 -0.5871  0.2290
 4060SOL    HW113621   0.112   6.685   2.447 -0.5117 -0.8799  0.5215
 4060SOL    HW213622   0.033   6.780   2.359 -0.5422 -0.8482  0.5832
 4061SOL     OW13623   5.260   5.579   6.409 -0.3076  0.0729 -0.2583
 4061SOL    HW113624   5.261   5.639   6.335 -2.7807 -1.4457 -1.6596
 4061SOL    HW213625   5.317   5.507   6.382 -1.2892 -0.5289 -0.7789
 4062SOL     OW13626   7.553   7.782   3.817  0.1129 -0.2384 -0.8266
 4062SOL    HW113627   7.470   7.790   3.770 -0.2074 -0.9210 -0.3997
 4062SOL    HW213628   7.580   7.691   3.802 -0.8923 -1.0501  1.7030
 4063SOL     OW13629   1.888   1.080   9.619  0.0457 -0.4844  0.4877
 4063SOL    HW113630   1.813   1.038   9.576  1.1175 -0.8085 -1.1539
 4063SOL    HW213631   1.879   1.172   9.596  0.3242 -0.5731  0.0232
 4064SOL     OW13632   6.580   1.977   7.581  0.1782  0.0948 -0.8272
 4064SOL    HW113633   6.675   1.962   7.581  0.2496  0.4730 -1.7099
 4064SOL    HW213634   6.568   2.052   7.523 -0.5403  0.9171  0.3357
 4065SOL     OW13635   0.681   2.605  12.269  0.1740  0.7820 -0.3721
 4065SOL    HW113636   0.694   2.513  12.245  0.6428  0.3297  1.4885
 4065SOL    HW213637   0.659   2.648  12.186 -0.3092 -1.0388 -1.2436
 4066SOL     OW13638   0.053   4.883   4.542 -0.2441 -0.6647  0.1786
 4066SOL    HW113639   0.055   4.799   4.588 -0.3314 -0.8025 -0.0682
 4066SOL    HW213640   0.119   4.876   4.474  0.2963 -0.2423  0.6495
 4067SOL     OW13641   1.165   5.679  10.694 -0.0279  0.1421  0.8991
 4067SOL    HW113642   1.259   5.664  10.702 -0.0215 -0.1546  0.3617
 4067SOL    HW213643   1.157   5.771  10.668  0.1368  0.0695  0.5851
 4068SOL     OW13644   2.935   7.092  10.623  0.2315 -0.5458 -0.5093
 4068SOL    HW113645   2.942   7.059  10.533 -0.5450  1.1441 -1.2379
 4068SOL    HW213646   2.924   7.186  10.613 -0.1418 -0.3545  1.3596
 4069SOL     OW13647   0.633   1.701   1.274 -0.0197  0.1082 -0.3315
 4069SOL    HW113648   0.571   1.725   1.206 -0.5731  1.1365  0.5015
 4069SOL    HW213649   0.708   1.664   1.227 -0.5605  0.4144 -1.4624
 4070SOL     OW13650   1.102   3.259  12.029 -0.5462  0.3723  0.0593
 4070SOL    HW113651   1.155   3.337  12.046  2.2974 -1.5839  0.9991
 4070SOL    HW213652   1.075   3.229  12.115 -1.3816  0.1410 -0.2735
 4071SOL     OW13653   6.267   7.560   4.634 -0.2000  0.4716 -0.4790
 4071SOL    HW113654   6.178   7.550   4.667  0.4886 -1.0842  1.0861
 4071SOL    HW213655   6.260   7.625   4.564 -2.5289  0.4288 -0.3533
 4072SOL     OW13656   7.909   1.637   9.242 -0.1449  0.0570 -0.1292
 4072SOL    HW113657   7.831   1.645   9.188  1.1350  1.6725 -1.8776
 4072SOL    HW213658   7.972   1.697   9.202  3.0971 -3.4297 -0.7317
 4073SOL     OW13659   0.289   5.639   7.557  0.6957 -0.4304 -0.0769
 4073SOL    HW113660   0.204   5.678   7.578  1.6189  1.4467  0.3301
 4073SOL    HW213661   0.330   5.701   7.497  1.6835 -1.4620 -0.5120
 4074SOL     OW13662   7.639   5.551   5.502 -0.2853 -0.7134  0.4001
 4074SOL    HW113663   7.706   5.619   5.497  0.1824 -0.9687  2.3653
 4074SOL    HW213664   7.661   5.492   5.430  1.1426 -0.3738  0.5092
 4075SOL     OW13665   2.980   7.318   5.454  0.2799  0.2471  0.2976
 4075SOL    HW113666   3.064   7.299   5.496  0.3996  0.8897  0.3575
 4075SOL    HW213667   2.995   7.299   5.362  0.5735  0.6220  0.2659
 4076SOL     OW13668   0.800   7.195   0.506  0.3327  0.0540 -0.2709
 4076SOL    HW113669   0.758   7.169   0.424  1.4185 -0.7744 -0.5916
 4076SOL    HW213670   0.728   7.222   0.563 -0.7810 -2.3056 -0.4257
 4077SOL     OW13671   4.169   6.833   6.523  0.0795 -0.2393 -0.1768
 4077SOL    HW113672   4.183   6.740   6.541  0.3528 -0.3811 -1.0726
 4077SOL    HW213673   4.243   6.877   6.565  0.5699 -0.5357 -0.7309
 4078SOL     OW13674   3.456   2.365   7.836 -0.2039 -0.6996 -0.4292
 4078SOL    HW113675   3.402   2.364   7.915 -0.6735 -0.6543 -0.7508
 4078SOL    HW213676   3.508   2.445   7.845  1.1392 -1.6533  0.7592
 4079SOL     OW13677   2.549   7.800   7.506  0.5111 -0.2382  0.1453
 4079SOL    HW113678   2.566   7.714   7.544  0.5963 -1.2566 -2.0526
 4079SOL    HW213679   2.481   7.786   7.442  1.2003  1.1348 -0.9624
 4080SOL     OW13680   2.407   0.726  10.672  0.3407  0.2275  0.0144
 4080SOL    HW113681   2.460   0.781  10.731 -0.2373  0.6905  0.1196
 4080SOL    HW213682   2.317   0.744  10.698  0.0808  0.3206 -0.9121
 4081SOL     OW13683   6.368   4.710   4.678 -0.0234  0.2137 -0.3914
 4081SOL    HW113684   6.317   4.650   4.732  0.0108  0.2277 -0.3436
 4081SOL    HW213685   6.415   4.653   4.616 -0.6701  0.2466 -0.9241
 4082SOL     OW13686   7.730   6.641   4.709 -0.1672 -0.3858  0.1792
 4082SOL    HW113687   7.644   6.598   4.714  0.2912 -1.1558  2.5349
 4082SOL    HW213688   7.793   6.573   4.731  0.7823  0.8398  1.4860
 4083SOL     OW13689   5.285   7.197   7.656 -0.5648  0.2160 -0.0636
 4083SOL    HW113690   5.301   7.151   7.574  3.4398  2.0534 -0.5875
 4083SOL    HW213691   5.267   7.287   7.630  2.4288  1.2177  0.9277
 4084SOL     OW13692   7.610   3.933   6.157  0.1226 -0.4100  0.4217
 4084SOL    HW113693   7.607   3.911   6.250  0.0167  1.9968  1.0631
 4084SOL    HW213694   7.663   4.013   6.153  0.1562 -0.4693 -1.6006
 4085SOL     OW13695   7.775   7.802  12.276  0.1074 -0.1418 -0.0228
 4085SOL    HW113696   7.711   7.732  12.259 -1.3644  0.9956  0.6302
 4085SOL    HW213697   7.782   7.848  12.192  0.0924 -0.2793 -0.1000
 4086SOL     OW13698   5.991   5.050   5.345  0.1112 -0.5446  0.1174
 4086SOL    HW113699   5.940   4.991   5.400 -0.4692  0.1815  0.3807
 4086SOL    HW213700   5.954   5.136   5.362  1.1090 -0.0653 -0.0661
 4087SOL     OW13701   2.960   6.933   2.490 -0.1438  0.4208 -0.0564
 4087SOL    HW113702   2.946   6.884   2.571  0.4445 -2.4093 -1.5191
 4087SOL    HW213703   3.031   6.994   2.510 -1.4691  1.3583  2.0866
 4088SOL     OW13704   6.243   7.861   1.083 -0.0885  0.4879  0.0328
 4088SOL    HW113705   6.237   7.773   1.047  0.1526  0.7971 -0.7711
 4088SOL    HW213706   6.264   7.917   1.009 -0.6440  1.2898  0.4559
 4089SOL     OW13707   5.655   5.907  10.627 -0.1804 -0.6367  0.1163
 4089SOL    HW113708   5.615   5.947  10.550  2.8078 -0.9820 -1.8179
 4089SOL    HW213709   5.623   5.817  10.627 -0.6444 -0.4764 -0.3965
 4090SOL     OW13710   4.613   0.369   6.536  0.0318 -0.7314 -0.4282
 4090SOL    HW113711   4.599   0.326   6.620 -2.3021  0.6364 -0.0294
 4090SOL    HW213712   4.709   0.372   6.527  0.3271 -2.0716  1.5277
 4091SOL     OW13713   4.992   4.814   1.334 -0.3935 -0.6451  0.1889
 4091SOL    HW113714   4.905   4.853   1.333 -0.6343 -1.1427  0.6946
 4091SOL    HW213715   4.987   4.741   1.272  0.2227  0.4401 -1.1867
 4092SOL     OW13716   2.724   2.957   8.480  0.1997  0.2043 -0.1700
 4092SOL    HW113717   2.646   3.007   8.504  1.5019  1.9331  0.6546
 4092SOL    HW213718   2.689   2.880   8.435 -1.9371  1.3724 -0.6772
 4093SOL     OW13719   0.776   6.396  11.354 -0.0221  0.0702 -0.5481
 4093SOL    HW113720   0.856   6.443  11.332  0.0266 -0.7608 -2.3739
 4093SOL    HW213721   0.744   6.437  11.434  2.2889  0.3146  0.3118
 4094SOL     OW13722   0.117   0.265  10.655  0.3366 -0.0089 -0.2361
 4094SOL    HW113723   0.077   0.305  10.733  0.1151  1.5879 -1.1335
 4094SOL    HW213724   0.050   0.274  10.587  0.8262 -0.6981 -0.8240
 4095SOL     OW13725   0.878   2.165   5.309  0.6706  0.0730 -0.0483
 4095SOL    HW113726   0.892   2.260   5.302 -0.5220  0.3342  0.7564
 4095SOL    HW213727   0.963   2.127   5.287  0.9906  1.2938 -1.0594
 4096SOL     OW13728   1.960   0.465   6.928  0.3872  0.1771  1.0554
 4096SOL    HW113729   1.907   0.428   6.998  0.7110 -0.3047  1.0521
 4096SOL    HW213730   2.034   0.405   6.919  0.2291  0.0913  0.1387
 4097SOL     OW13731   2.936   4.289   7.101 -0.1771  0.2203  0.3206
 4097SOL    HW113732   3.010   4.241   7.139 -0.6635  0.0760  1.1029
 4097SOL    HW213733   2.858   4.246   7.135 -0.6273  1.0480  0.3806
 4098SOL     OW13734   7.149   0.084   7.961 -0.0348 -0.6555  0.4212
 4098SOL    HW113735   7.154   0.006   7.906 -0.1696 -0.6507  0.4013
 4098SOL    HW213736   7.117   0.053   8.045 -0.3274 -0.5870  0.3385
 4099SOL     OW13737   5.064   6.711   7.009  0.0401  0.0226  1.3252
 4099SOL    HW113738   4.994   6.651   6.982 -0.4653  1.4671 -0.7892
 4099SOL    HW213739   5.026   6.761   7.080 -0.3416 -0.5861  1.5626
 4100SOL     OW13740   3.224   5.321   4.884  0.6410 -1.0213  0.0224
 4100SOL    HW113741   3.203   5.343   4.975 -0.9276 -0.5380 -0.4245
 4100SOL    HW213742   3.212   5.403   4.837 -0.3128 -1.6664 -0.8920
 4101SOL     OW13743   7.207   7.019   7.264 -0.2707 -0.7336 -0.1467
 4101SOL    HW113744   7.185   7.011   7.171 -1.7936  1.0275 -0.0009
 4101SOL    HW213745   7.135   6.976   7.309 -0.9264  0.6929  0.2365
 4102SOL     OW13746   4.308   2.293   0.051  1.0871  0.6089 -0.3236
 4102SOL    HW113747   4.252   2.246   0.112  0.1339 -0.1608 -1.7338
 4102SOL    HW213748   4.337   2.371   0.100 -1.3865  1.1603  0.4101
 4103SOL     OW13749   3.348   4.293  11.266  0.3511  0.1502  0.4336
 4103SOL    HW113750   3.389   4.328  11.345  1.4261 -0.4407  0.1544
 4103SOL    HW213751   3.254   4.303  11.281  0.5736  1.4047  1.1544
 4104SOL     OW13752   4.975   7.070   5.206  0.0290 -1.1445  0.2530
 4104SOL    HW113753   4.882   7.053   5.190 -0.0463 -0.2321 -0.3896
 4104SOL    HW213754   5.016   7.058   5.121  0.0613  1.1016 -0.1079
 4105SOL     OW13755   6.781   1.533   0.091  0.7943  0.0459 -0.4272
 4105SOL    HW113756   6.741   1.620   0.105  0.3763 -0.1059 -0.6568
 4105SOL    HW213757   6.745   1.504   0.007  1.1442 -0.2345 -0.4790
 4106SOL     OW13758   3.636   3.271   0.020 -0.1767 -0.2647  0.2035
 4106SOL    HW113759   3.690   3.214  -0.035 -2.0054 -1.4268 -0.4595
 4106SOL    HW213760   3.637   3.356  -0.025  1.4275 -0.1091  0.4607
 4107SOL     OW13761   2.082   3.172   4.582 -0.2241 -0.7174 -0.0584
 4107SOL    HW113762   2.178   3.179   4.582 -0.3418  1.9508 -0.7842
 4107SOL    HW213763   2.064   3.094   4.529  1.5241  0.2852 -2.3114
 4108SOL     OW13764   1.932   1.366   8.369  0.0110  0.9670  0.2735
 4108SOL    HW113765   1.955   1.448   8.325  0.9839  1.0134  0.8377
 4108SOL    HW213766   1.881   1.318   8.305 -1.5280  2.4684  0.3042
 4109SOL     OW13767   0.578   4.059   4.040  0.6010 -0.5482  0.6372
 4109SOL    HW113768   0.517   3.995   4.077  0.8085 -0.5057  1.0542
 4109SOL    HW213769   0.547   4.071   3.950 -0.4605  0.0298  1.0639
 4110SOL     OW13770   1.215   1.882   3.191 -0.1883 -0.0997  0.2921
 4110SOL    HW113771   1.151   1.947   3.160  0.3027 -0.0842 -0.7371
 4110SOL    HW213772   1.213   1.890   3.286  1.6850  3.1996  0.1858
 4111SOL     OW13773   2.055   1.725   9.372 -0.6102 -0.0539  0.3794
 4111SOL    HW113774   2.107   1.649   9.348 -0.8081 -0.7899  2.1683
 4111SOL    HW213775   1.990   1.692   9.434 -0.9470  1.4893  0.9016
 4112SOL     OW13776   2.419   7.902   5.544 -0.2752  0.1316 -0.0994
 4112SOL    HW113777   2.490   7.853   5.585  0.4814  1.5683  0.4007
 4112SOL    HW213778   2.425   7.881   5.451  1.2184  0.6736 -0.1502
 4113SOL     OW13779   7.693   4.478  12.290 -0.4672  0.1487  0.0839
 4113SOL    HW113780   7.747   4.556  12.306  2.4108 -1.4592 -0.8918
 4113SOL    HW213781   7.735   4.436  12.214 -2.5504 -1.7953 -0.0833
 4114SOL     OW13782   1.828   0.023   4.496  0.0758  0.0485  0.7186
 4114SOL    HW113783   1.802  -0.014   4.411  0.8938  0.3816  0.3105
 4114SOL    HW213784   1.746   0.047   4.538 -0.3474 -0.2728  0.0870
 4115SOL     OW13785   1.961   7.709   6.542  0.2556  0.2211  0.4967
 4115SOL    HW113786   2.040   7.662   6.516  0.0760  0.1639  0.0468
 4115SOL    HW213787   1.913   7.724   6.460 -1.3053 -1.7368  0.9634
 4116SOL     OW13788   6.487   5.467   3.211 -1.1781 -0.7577  0.5204
 4116SOL    HW113789   6.416   5.405   3.192 -2.3222 -0.4138  3.1666
 4116SOL    HW213790   6.450   5.553   3.193 -0.3580 -0.6896 -0.9748
 4117SOL     OW13791   7.664   1.591   6.604 -0.0715 -0.2284 -0.1024
 4117SOL    HW113792   7.580   1.587   6.650 -0.3716  1.7209 -0.4063
 4117SOL    HW213793   7.726   1.552   6.666 -0.9617 -0.4832  0.6655
 4118SOL     OW13794   1.370   2.406   8.422 -0.2668 -0.3137 -0.3123
 4118SOL    HW113795   1.445   2.349   8.410  0.1993  0.4103 -0.8837
 4118SOL    HW213796   1.407   2.494   8.430 -1.0209  0.0002 -0.1433
 4119SOL     OW13797   5.641   7.331   4.559 -0.1702 -0.5552  0.2389
 4119SOL    HW113798   5.703   7.258   4.552  0.5756  0.1514 -1.0503
 4119SOL    HW213799   5.569   7.307   4.500  1.2179  0.7632 -2.1515
 4120SOL     OW13800   2.033   3.832   9.260  0.0489 -0.2901 -0.0686
 4120SOL    HW113801   1.979   3.894   9.310 -2.0810 -1.8684 -0.2664
 4120SOL    HW213802   2.106   3.884   9.228 -0.1765  1.4877  2.0462
 4121SOL     OW13803   5.457   6.538   2.115  0.3139  0.4115  0.5113
 4121SOL    HW113804   5.531   6.588   2.079  0.1332  0.5941  0.3875
 4121SOL    HW213805   5.467   6.545   2.209  0.5778  0.2517  0.4952
 4122SOL     OW13806   5.566   6.076  12.382 -0.2051  0.0157  0.0081
 4122SOL    HW113807   5.493   6.074  12.320  0.0147  1.0612 -0.3149
 4122SOL    HW213808   5.527   6.107  12.464 -0.3143 -0.4228  0.1223
 4123SOL     OW13809   5.352   5.062   9.147  0.2721  0.6426 -0.3952
 4123SOL    HW113810   5.269   5.019   9.127 -0.0462  0.8008  0.5477
 4123SOL    HW213811   5.394   5.075   9.061  1.2184 -3.1129 -0.6696
 4124SOL     OW13812   1.977   4.233   5.200  0.7450  0.2959 -0.3466
 4124SOL    HW113813   1.996   4.278   5.282  0.5110 -0.4796  0.1501
 4124SOL    HW213814   1.931   4.298   5.147  0.4747  0.6599  0.3236
 4125SOL     OW13815   4.168   6.104  11.309 -0.4988  0.0331  0.7725
 4125SOL    HW113816   4.100   6.105  11.240  0.0915  1.1276  0.1805
 4125SOL    HW213817   4.144   6.030  11.364 -1.8801  0.0628  0.2693
 4126SOL     OW13818   1.700   4.491   8.773 -0.0585 -0.2974  0.0438
 4126SOL    HW113819   1.651   4.511   8.693 -0.2513  1.8588  0.6401
 4126SOL    HW213820   1.643   4.521   8.844  0.6980 -0.9090  0.9292
 4127SOL     OW13821   1.555   0.173   4.305  0.4061 -0.1998 -0.1277
 4127SOL    HW113822   1.546   0.153   4.399 -0.5494  2.1625  0.3584
 4127SOL    HW213823   1.601   0.097   4.269  0.8936 -1.1484  2.2679
 4128SOL     OW13824   7.219   6.565   2.841  0.3719 -0.2010  0.1257
 4128SOL    HW113825   7.160   6.640   2.829  1.2734  0.8164  1.7301
 4128SOL    HW213826   7.161   6.489   2.839 -0.7302  0.6178 -0.3166
 4129SOL     OW13827   3.607   7.620   6.887 -0.3771 -0.0840  0.3581
 4129SOL    HW113828   3.541   7.551   6.894  1.5517 -1.8408  2.7435
 4129SOL    HW213829   3.602   7.666   6.972 -0.0989  1.3165 -0.3532
 4130SOL     OW13830   4.525   1.598   4.478  0.4272  0.0844 -0.6037
 4130SOL    HW113831   4.583   1.524   4.459 -0.4239 -0.3117 -1.7779
 4130SOL    HW213832   4.530   1.608   4.573  0.1257 -1.8858 -0.3238
 4131SOL     OW13833   3.692   5.948   1.500  0.5212 -0.1752  0.3875
 4131SOL    HW113834   3.773   5.948   1.551 -0.1180  1.2013  1.4479
 4131SOL    HW213835   3.685   6.037   1.465 -0.7176 -0.1656  0.6185
 4132SOL     OW13836   4.918   2.139  11.603  0.2971  0.6238 -0.3839
 4132SOL    HW113837   4.908   2.051  11.639  0.3828  0.5434 -0.5502
 4132SOL    HW213838   4.908   2.198  11.678  3.0725  0.3693  0.2836
 4133SOL     OW13839   5.393   3.027   4.930  0.3635  0.0548 -0.3891
 4133SOL    HW113840   5.481   3.055   4.955  0.0437 -0.4055  1.4189
 4133SOL    HW213841   5.355   3.102   4.884  1.0805  0.9146  0.3973
 4134SOL     OW13842   3.418   5.969   5.245 -0.0327  0.0169  0.4135
 4134SOL    HW113843   3.414   5.955   5.339  0.2712 -0.2028  0.3974
 4134SOL    HW213844   3.470   6.048   5.235  0.4977 -0.3244  0.4107
 4135SOL     OW13845   7.675   3.547   6.823  0.1519 -0.8174  0.0333
 4135SOL    HW113846   7.660   3.639   6.802 -1.9476 -1.3512 -1.0290
 4135SOL    HW213847   7.770   3.540   6.830  0.3625  1.4380  0.2810
 4136SOL     OW13848   7.270   2.461   3.711  0.3151 -0.1186  0.8236
 4136SOL    HW113849   7.229   2.449   3.625  1.4317  0.6690  0.1552
 4136SOL    HW213850   7.304   2.375   3.734  2.3278  0.1826 -0.7737
 4137SOL     OW13851   3.809   2.649   2.069  0.1278  0.4926  0.6667
 4137SOL    HW113852   3.867   2.576   2.046  0.4429  0.7467  0.6364
 4137SOL    HW213853   3.739   2.609   2.120 -0.0815  0.0605  0.0548
 4138SOL     OW13854   4.954   3.805   2.055  0.2726 -0.4662 -0.1375
 4138SOL    HW113855   5.027   3.850   2.012  0.3850  1.6727  2.0533
 4138SOL    HW213856   4.877   3.854   2.028  0.1507 -0.1908  0.6901
 4139SOL     OW13857   7.344   2.860   3.808 -0.0654  0.1528  0.4150
 4139SOL    HW113858   7.400   2.792   3.846 -1.4412 -1.3789 -0.2012
 4139SOL    HW213859   7.400   2.903   3.743  0.4141 -1.3887 -0.2348
 4140SOL     OW13860   6.544   3.547   7.210  0.4309 -0.2115  0.1389
 4140SOL    HW113861   6.576   3.461   7.182 -0.1959 -0.9336  1.5503
 4140SOL    HW213862   6.462   3.558   7.161  0.5692 -0.3661 -0.1318
 4141SOL     OW13863   6.082   3.700   7.816  0.3574  0.2159  0.1628
 4141SOL    HW113864   6.052   3.611   7.833 -0.1716  0.1529 -0.9698
 4141SOL    HW213865   6.131   3.725   7.894 -1.9991  0.0267  1.8115
 4142SOL     OW13866   2.206   2.098   3.096  0.6486  0.3502 -0.4070
 4142SOL    HW113867   2.247   2.145   3.170  2.6954  0.0418 -1.2682
 4142SOL    HW213868   2.215   2.006   3.118 -2.2519  0.2507  0.6997
 4143SOL     OW13869   4.104   4.598   1.024  0.4172  0.4678 -0.3994
 4143SOL    HW113870   4.077   4.684   0.992 -3.8456  0.2709  1.9060
 4143SOL    HW213871   4.117   4.611   1.118 -0.1057 -1.3031 -0.0444
 4144SOL     OW13872   3.829   1.782  10.599  0.0701  0.0948  0.2667
 4144SOL    HW113873   3.834   1.877  10.581  1.5415 -0.1091 -0.5631
 4144SOL    HW213874   3.877   1.770  10.680 -1.4219  0.2203  1.2137
 4145SOL     OW13875   4.799   1.175   8.121  0.3084 -0.3154  0.3482
 4145SOL    HW113876   4.754   1.190   8.037  1.5838  0.3457 -0.2484
 4145SOL    HW213877   4.882   1.136   8.096  0.7094 -0.1060  1.3209
 4146SOL     OW13878   2.016   6.784  11.974 -0.6287 -0.0126 -0.2651
 4146SOL    HW113879   2.109   6.800  11.989 -0.3164 -1.3776 -0.6322
 4146SOL    HW213880   2.012   6.736  11.891 -1.5097 -1.3345  0.4953
 4147SOL     OW13881   2.340   6.544   6.970  0.1264 -0.0343 -0.3878
 4147SOL    HW113882   2.259   6.537   7.021  0.0175 -0.5119 -0.6120
 4147SOL    HW213883   2.410   6.538   7.036 -0.0167 -0.1397 -0.2422
 4148SOL     OW13884   0.766   2.369  10.839 -0.0407 -0.0677 -0.0030
 4148SOL    HW113885   0.841   2.361  10.897  0.1028 -0.7953 -0.2793
 4148SOL    HW213886   0.770   2.459  10.806  0.1466  0.2039  0.7331
 4149SOL     OW13887   1.944   6.109   1.403 -0.6484 -0.3091 -0.0871
 4149SOL    HW113888   1.956   6.125   1.497 -1.9405 -2.0612  0.4174
 4149SOL    HW213889   2.023   6.061   1.377 -1.4745 -2.2351  0.7670
 4150SOL     OW13890   7.696   6.494   7.792 -0.2979 -0.5616  0.4619
 4150SOL    HW113891   7.638   6.487   7.716  0.6625  0.7651 -0.4496
 4150SOL    HW213892   7.644   6.541   7.857 -1.0159 -1.4184  0.5258
 4151SOL     OW13893   3.067   7.723   4.017  0.3064  0.1860 -0.3690
 4151SOL    HW113894   3.089   7.694   4.106  0.2312  0.6913 -0.1819
 4151SOL    HW213895   3.001   7.791   4.030  0.3152  0.2822 -0.8111
 4152SOL     OW13896   1.410   6.710   3.968 -0.2475  0.8065 -0.1011
 4152SOL    HW113897   1.415   6.615   3.982 -2.3227  0.8159  1.1479
 4152SOL    HW213898   1.321   6.733   3.993 -0.0019  3.0111 -1.0302
 4153SOL     OW13899   2.529   1.005   0.092 -0.0182 -0.0279 -0.4117
 4153SOL    HW113900   2.594   0.948   0.135  1.2004  1.7345  0.1707
 4153SOL    HW213901   2.502   0.955   0.015  1.6354 -1.0477 -0.3966
 4154SOL     OW13902   1.460   4.266   5.116  0.3802 -0.7698  1.1778
 4154SOL    HW113903   1.471   4.261   5.211  0.0776 -2.0111  1.1615
 4154SOL    HW213904   1.398   4.338   5.103  2.1787  0.9382  1.7566
 4155SOL     OW13905   1.623   7.365   3.595  0.8258 -0.0624  0.2351
 4155SOL    HW113906   1.658   7.380   3.683  0.9752 -1.7026  0.4859
 4155SOL    HW213907   1.692   7.396   3.537  2.5985 -2.7667  0.7277
 4156SOL     OW13908   2.979   2.101   0.186  0.3112  0.2646 -0.1032
 4156SOL    HW113909   2.955   2.010   0.170 -0.3005  0.3147  0.5140
 4156SOL    HW213910   3.063   2.112   0.140  0.9070 -0.8914  0.6680
 4157SOL     OW13911   1.198   5.615   7.717  0.0992 -0.8986  0.3423
 4157SOL    HW113912   1.222   5.631   7.808  0.6484  2.6389 -0.2952
 4157SOL    HW213913   1.110   5.577   7.722 -0.3835  0.3641  2.3239
 4158SOL     OW13914   6.764   5.152  11.431 -0.1920 -0.4150 -0.3551
 4158SOL    HW113915   6.846   5.117  11.466  0.7942  0.8484 -1.3126
 4158SOL    HW213916   6.761   5.123  11.340  0.2039  1.1645 -0.9055
 4159SOL     OW13917   0.236   4.080   6.679  0.6979 -0.5510 -0.0685
 4159SOL    HW113918   0.226   4.135   6.757  0.8255  0.2943 -0.6402
 4159SOL    HW213919   0.259   4.141   6.609  0.5395 -1.2953 -0.7844
 4160SOL     OW13920   3.071   5.249   2.843 -0.1901 -0.4347 -0.7487
 4160SOL    HW113921   2.977   5.246   2.825 -0.2004 -0.3997 -0.6996
 4160SOL    HW213922   3.088   5.169   2.893 -0.7767  1.0855  2.0541
 4161SOL     OW13923   0.901   2.759  11.854  0.1112 -0.0157  0.1612
 4161SOL    HW113924   0.812   2.735  11.878 -0.6433  0.4644 -1.8789
 4161SOL    HW213925   0.955   2.725  11.924 -1.7826  0.7642  2.1089
 4162SOL     OW13926   3.969   6.020  12.077 -0.2042  0.6032 -0.1842
 4162SOL    HW113927   4.031   6.033  12.148 -0.1420  0.6439 -0.2460
 4162SOL    HW213928   3.893   5.978  12.119  0.6264 -1.2433 -0.4388
 4163SOL     OW13929   2.499   5.172  10.667  0.1038 -0.1141 -0.3035
 4163SOL    HW113930   2.594   5.185  10.670  0.0151  0.4186  1.3008
 4163SOL    HW213931   2.479   5.165  10.574  1.7430 -0.5003 -0.6712
 4164SOL     OW13932   2.048   5.733   9.910  0.2621 -0.1484  0.5179
 4164SOL    HW113933   2.098   5.655   9.888 -0.7575 -0.6568 -0.0575
 4164SOL    HW213934   2.101   5.806   9.877  0.4911 -0.6853 -0.3213
 4165SOL     OW13935   1.188   3.098   4.311 -0.0593  0.1972  0.5304
 4165SOL    HW113936   1.161   3.063   4.227 -0.5588 -1.2199  1.2483
 4165SOL    HW213937   1.112   3.146   4.344  0.7224  2.3875 -0.5908
 4166SOL     OW13938   7.681   0.503  11.203  0.6035 -0.3123 -0.3963
 4166SOL    HW113939   7.706   0.507  11.295  0.1299  0.7528 -0.2911
 4166SOL    HW213940   7.629   0.423  11.195 -2.3534  1.2752  1.0903
 4167SOL     OW13941   7.145   2.174   5.885  0.4801 -0.5129 -0.1158
 4167SOL    HW113942   7.232   2.184   5.922  0.8034  0.9494 -1.2050
 4167SOL    HW213943   7.144   2.231   5.809 -1.9667  0.8033  0.7815
 4168SOL     OW13944   6.987   4.176   0.496 -0.1731 -0.1812 -0.1560
 4168SOL    HW113945   7.038   4.175   0.415 -0.5000 -0.5562 -0.3596
 4168SOL    HW213946   6.909   4.227   0.474  0.0177  0.2228  0.0970
 4169SOL     OW13947   2.386   1.304   2.798  0.1555 -0.2592 -0.6771
 4169SOL    HW113948   2.302   1.303   2.843  1.4844 -0.2663  2.0541
 4169SOL    HW213949   2.392   1.392   2.760 -1.0425 -0.2477 -0.8709
 4170SOL     OW13950   5.670   5.919   3.701  0.0231  0.1462  0.6782
 4170SOL    HW113951   5.749   5.867   3.716  0.5229  1.0342  1.2100
 4170SOL    HW213952   5.699   5.989   3.642  0.0724  1.4528  2.1841
 4171SOL     OW13953   4.004   5.543   8.915 -0.5003  0.2002  0.1968
 4171SOL    HW113954   3.951   5.618   8.887 -0.3802  1.0221  2.0022
 4171SOL    HW213955   4.075   5.582   8.966  0.5069 -1.0485 -0.1935
 4172SOL     OW13956   3.948   1.150  11.712  0.1942 -0.1202 -0.5754
 4172SOL    HW113957   3.969   1.221  11.651 -0.2112 -2.6294 -3.8968
 4172SOL    HW213958   3.857   1.129  11.693  0.2466 -1.4060  0.4948
 4173SOL     OW13959   3.260   3.995   0.548  0.0353 -0.3158 -0.2106
 4173SOL    HW113960   3.344   3.954   0.528  0.0909  0.6129 -2.1525
 4173SOL    HW213961   3.258   4.074   0.493 -0.9586  1.1600  1.7973
 4174SOL     OW13962   1.410   4.992   5.515 -0.2480  0.4910 -0.5649
 4174SOL    HW113963   1.487   5.021   5.564  0.0058  1.0354 -1.2698
 4174SOL    HW213964   1.340   5.051   5.542 -0.5950 -0.3629  0.5153
 4175SOL     OW13965   5.772   7.658   3.685 -0.2680  0.1092  0.5384
 4175SOL    HW113966   5.792   7.736   3.633  2.7833 -0.2658  0.9900
 4175SOL    HW213967   5.750   7.591   3.620  1.5112  0.1909 -0.2095
 4176SOL     OW13968   7.426   4.709   7.604 -0.2060  0.7971 -0.6744
 4176SOL    HW113969   7.511   4.705   7.647 -0.8695 -0.1296  0.5996
 4176SOL    HW213970   7.395   4.619   7.603 -1.2017  1.1274 -1.0766
 4177SOL     OW13971   6.905   1.980   2.603 -0.5178 -0.1666  0.0825
 4177SOL    HW113972   7.000   1.972   2.604 -0.6634 -2.3575  0.2109
 4177SOL    HW213973   6.885   2.014   2.515  0.3701  0.6761  0.1881
 4178SOL     OW13974   1.893   1.849   0.189  0.1998 -0.7598 -0.0807
 4178SOL    HW113975   1.919   1.915   0.125  0.1192 -0.6217  0.0290
 4178SOL    HW213976   1.974   1.803   0.211 -0.1878 -2.8471 -2.5499
 4179SOL     OW13977   0.238   4.813   2.115  0.0723  0.2639  0.2739
 4179SOL    HW113978   0.247   4.720   2.098 -0.2348  0.4967 -1.3253
 4179SOL    HW213979   0.325   4.842   2.142  0.3026 -0.3781  0.2208
 4180SOL     OW13980   6.867   1.517   3.195  0.1784  0.1110 -0.3523
 4180SOL    HW113981   6.944   1.545   3.145  0.9316 -0.4868  0.4220
 4180SOL    HW213982   6.831   1.598   3.231 -0.6053  0.6006 -2.1249
 4181SOL     OW13983   4.670   2.431   2.329  0.0602  0.4865  0.1033
 4181SOL    HW113984   4.702   2.420   2.418 -1.2795 -0.1407  0.5373
 4181SOL    HW213985   4.620   2.351   2.311 -1.4219  1.4864 -0.4291
 4182SOL     OW13986   4.090   7.719   1.044 -0.1443  0.4142  0.5923
 4182SOL    HW113987   4.106   7.811   1.065  0.7757  0.4615 -0.2475
 4182SOL    HW213988   4.121   7.709   0.954 -1.3453 -0.4394  0.2471
 4183SOL     OW13989   0.896   3.436   6.027  0.5048  0.0085  0.0627
 4183SOL    HW113990   0.858   3.366   5.974  0.4902 -0.2899  0.4707
 4183SOL    HW213991   0.823   3.496   6.043  0.4480 -0.0367 -0.0238
 4184SOL     OW13992   1.617   7.191   5.433 -1.0442  0.4370 -0.3748
 4184SOL    HW113993   1.647   7.279   5.412  1.7942 -0.3926 -0.2297
 4184SOL    HW213994   1.630   7.182   5.527 -0.0999 -0.5191 -0.5732
 4185SOL     OW13995   3.843   1.576  12.013  0.2555 -0.1079 -0.1408
 4185SOL    HW113996   3.749   1.589  11.998  0.3738  0.4861 -0.3842
 4185SOL    HW213997   3.882   1.578  11.926  0.7608  1.8597  0.0851
 4186SOL     OW13998   7.400   1.626  10.501  0.4728  0.1319 -0.4596
 4186SOL    HW113999   7.484   1.596  10.537  0.5234 -0.9923 -1.4431
 4186SOL    HW214000   7.419   1.713  10.465  0.8107  0.5709  0.7146
 4187SOL     OW14001   0.421   1.503   5.134 -0.1889 -0.4491  0.0588
 4187SOL    HW114002   0.502   1.503   5.083 -0.4715 -0.1416 -0.3985
 4187SOL    HW214003   0.433   1.433   5.198  1.1007  0.6610  1.0795
 4188SOL     OW14004   6.744   1.656   1.807 -0.0312 -0.0883 -0.7368
 4188SOL    HW114005   6.735   1.701   1.724  1.4972  0.2406 -0.7423
 4188SOL    HW214006   6.838   1.656   1.825 -0.3031 -0.4193  0.8395
 4189SOL     OW14007   6.518   0.392   0.723 -0.6044 -0.3750  0.5544
 4189SOL    HW114008   6.611   0.380   0.739 -0.2806 -0.7098 -1.3683
 4189SOL    HW214009   6.513   0.435   0.637 -2.1802  1.4007  1.4467
 4190SOL     OW14010   1.385   4.970   8.925  0.6627  0.2976 -0.3771
 4190SOL    HW114011   1.450   4.901   8.914  0.0384 -0.3198 -0.2645
 4190SOL    HW214012   1.398   5.028   8.850  0.4844 -0.5351 -1.0742
 4191SOL     OW14013   2.096   5.307   9.688  0.2289 -0.3139  0.1247
 4191SOL    HW114014   2.017   5.346   9.649  0.6638  0.7306  0.2625
 4191SOL    HW214015   2.131   5.251   9.619 -0.8535 -1.1351  0.2020
 4192SOL     OW14016   1.136   6.491   6.994  0.4616 -0.5091  0.9013
 4192SOL    HW114017   1.219   6.501   7.039  1.1155  0.0334 -0.3581
 4192SOL    HW214018   1.155   6.517   6.903 -1.8067  2.8317  1.2267
 4193SOL     OW14019   4.494   6.588   9.709 -0.1644  0.2533  0.6110
 4193SOL    HW114020   4.420   6.562   9.653  0.9819 -1.0895 -0.3817
 4193SOL    HW214021   4.526   6.669   9.670 -0.0126 -0.1305 -0.0859
 4194SOL     OW14022   5.845   2.205   2.938 -0.3559  0.5119  0.4015
 4194SOL    HW114023   5.934   2.175   2.918 -1.1381 -2.4172  0.8766
 4194SOL    HW214024   5.814   2.145   3.006 -3.2275  0.4653 -0.7986
 4195SOL     OW14025   3.501   0.327   9.369 -0.2312  0.2032  0.2579
 4195SOL    HW114026   3.541   0.412   9.384  1.0044 -0.2227 -0.4756
 4195SOL    HW214027   3.469   0.331   9.278  0.0908 -0.2080  0.1241
 4196SOL     OW14028   1.962   7.910   6.085 -0.1146  0.2671 -0.2264
 4196SOL    HW114029   1.980   7.846   6.017  1.4031 -1.1101  1.3864
 4196SOL    HW214030   2.046   7.924   6.129 -1.3791 -0.4712  2.6746
 4197SOL     OW14031   7.251   5.639   1.405 -0.7207 -0.0175 -0.0146
 4197SOL    HW114032   7.182   5.678   1.350 -1.0138  0.1807  0.4861
 4197SOL    HW214033   7.212   5.633   1.492  0.0340  0.4866  0.3733
 4198SOL     OW14034   0.029   6.898   8.570  0.9029  0.2734 -0.0162
 4198SOL    HW114035   0.072   6.842   8.505  1.3369  0.4639  0.0999
 4198SOL    HW214036   0.088   6.896   8.646  0.2342 -0.2187  0.5022
 4199SOL     OW14037   2.217   6.545   6.379 -0.3000  0.7262 -0.4486
 4199SOL    HW114038   2.125   6.561   6.396 -0.2739  0.6293 -0.2076
 4199SOL    HW214039   2.224   6.450   6.369  0.1852  0.3891  2.2180
 4200SOL     OW14040   6.323   1.456  10.185  0.6939 -0.1433  0.0122
 4200SOL    HW114041   6.237   1.498  10.172  0.6346 -0.0558  0.6456
 4200SOL    HW214042   6.323   1.431  10.277  1.5191  0.2340  0.1224
 4201SOL     OW14043   0.946   3.246   0.479 -0.4204  0.2717 -0.1032
 4201SOL    HW114044   0.897   3.327   0.468 -0.5910  0.0803 -0.7752
 4201SOL    HW214045   0.894   3.180   0.434  1.3402  0.4010 -2.5619
 4202SOL     OW14046   1.208   1.320   4.744  0.5193  0.2739  0.5065
 4202SOL    HW114047   1.239   1.239   4.705  0.1727 -0.0126  0.8115
 4202SOL    HW214048   1.140   1.292   4.806 -0.6003  0.8960 -0.3965
 4203SOL     OW14049   2.612   6.889   9.383  0.2863 -0.3532 -0.1810
 4203SOL    HW114050   2.674   6.924   9.447  0.5730  1.4204 -1.3466
 4203SOL    HW214051   2.527   6.893   9.427  0.1811  2.6392 -0.4735
 4204SOL     OW14052   5.642   7.829   3.861 -0.7259 -0.1951 -0.4906
 4204SOL    HW114053   5.656   7.766   3.790  0.5504 -0.6360  0.1393
 4204SOL    HW214054   5.725   7.832   3.908 -1.8225 -0.6706  1.6108
 4205SOL     OW14055   4.566   5.323   5.445 -0.2528  0.3590 -0.0830
 4205SOL    HW114056   4.572   5.229   5.426  3.5016  0.3341  0.4321
 4205SOL    HW214057   4.501   5.329   5.515  0.2452 -2.0510  0.6986
 4206SOL     OW14058   4.671   0.760   3.782 -0.4306  0.6979  0.1756
 4206SOL    HW114059   4.584   0.761   3.740 -0.3093 -0.0619 -0.1111
 4206SOL    HW214060   4.732   0.750   3.709 -0.1571  0.3652  0.4497
 4207SOL     OW14061   4.475   2.467   4.970 -0.5196  0.0176 -0.5403
 4207SOL    HW114062   4.446   2.386   5.012  0.5031 -1.0045 -1.7358
 4207SOL    HW214063   4.479   2.446   4.877  2.8394  0.4153 -0.6073
 4208SOL     OW14064   2.956   1.341  11.017  0.0111  0.2827 -0.2632
 4208SOL    HW114065   2.963   1.288  11.097  3.7586 -0.2138 -0.7416
 4208SOL    HW214066   2.925   1.280  10.950 -0.3651 -0.0337  0.1921
 4209SOL     OW14067   7.183   3.191   3.744 -0.7669 -0.1092 -0.5676
 4209SOL    HW114068   7.135   3.167   3.665 -0.3637  0.3482 -0.9575
 4209SOL    HW214069   7.254   3.247   3.713  1.8541 -3.0904 -0.3877
 4210SOL     OW14070   3.302   0.773  12.365  0.6311  0.5878 -0.0861
 4210SOL    HW114071   3.379   0.716  12.374 -0.0464 -0.3506 -0.0021
 4210SOL    HW214072   3.310   0.836  12.437  1.1293  0.2632  0.1506
 4211SOL     OW14073   1.637   4.490   2.986 -0.4735 -0.1134 -0.1217
 4211SOL    HW114074   1.728   4.507   3.011 -1.0414  1.6982  0.9107
 4211SOL    HW214075   1.607   4.424   3.049 -0.3302  0.4479  0.5356
 4212SOL     OW14076   3.920   2.852   7.783  0.0423 -0.7287 -0.2559
 4212SOL    HW114077   3.986   2.833   7.849 -1.0508 -0.9912  0.8027
 4212SOL    HW214078   3.961   2.827   7.700  1.2468 -0.9078  0.3764
 4213SOL     OW14079   1.193   1.511   7.333 -0.2509  0.2607 -0.2462
 4213SOL    HW114080   1.191   1.606   7.343 -1.1429  0.3708 -1.2957
 4213SOL    HW214081   1.230   1.479   7.415  2.2431  1.6194 -0.7363
 4214SOL     OW14082   6.945   2.145   6.361 -0.3592 -0.4999 -0.0301
 4214SOL    HW114083   7.035   2.127   6.334 -0.4241 -0.6829 -0.1246
 4214SOL    HW214084   6.891   2.104   6.293 -0.5193  2.4240 -1.8704
 4215SOL     OW14085   6.892   7.730   7.019  0.1074 -0.7781  0.0120
 4215SOL    HW114086   6.801   7.758   7.016  0.0348 -1.0978 -1.2775
 4215SOL    HW214087   6.902   7.671   6.945  1.3908 -0.6848  0.0801
 4216SOL     OW14088   5.434   4.388   1.967  0.2786  0.1547 -0.2032
 4216SOL    HW114089   5.389   4.394   2.052  0.5492  0.7183 -0.0970
 4216SOL    HW214090   5.378   4.438   1.907  0.0221 -0.3490 -0.3871
 4217SOL     OW14091   4.358   1.876  10.573  0.3890  0.2181  0.1214
 4217SOL    HW114092   4.287   1.861  10.510  1.6223 -0.0005 -1.2459
 4217SOL    HW214093   4.403   1.792  10.579  1.1445  0.6267  0.2249
 4218SOL     OW14094   6.957   1.179  10.129 -0.4848  0.0977  0.4087
 4218SOL    HW114095   6.923   1.112  10.070  1.4055 -0.2258 -0.3883
 4218SOL    HW214096   7.052   1.168  10.125  0.0809  4.0416 -1.2629
 4219SOL     OW14097   0.559   6.313   0.667  0.0911  0.4085 -0.2624
 4219SOL    HW114098   0.626   6.297   0.733 -1.0532  1.6650  1.2688
 4219SOL    HW214099   0.597   6.280   0.585  1.4888 -1.3072  1.0210
 4220SOL     OW14100   0.176   1.046   1.783  0.1175 -0.2061 -0.2994
 4220SOL    HW114101   0.130   1.095   1.851  1.0231 -1.0851  0.9994
 4220SOL    HW214102   0.109   0.988   1.746 -0.3666  0.2100 -0.0802
 4221SOL     OW14103   0.895   2.269   7.403 -0.3711 -0.5345 -0.0898
 4221SOL    HW114104   0.963   2.319   7.357  1.1954 -1.2530  1.3262
 4221SOL    HW214105   0.812   2.308   7.374  0.6962  1.5189 -0.5818
 4222SOL     OW14106   5.299   1.126   3.111  0.6137 -0.2574 -0.0013
 4222SOL    HW114107   5.275   1.130   3.204 -1.8079 -1.4974 -0.5050
 4222SOL    HW214108   5.369   1.061   3.107  1.1418  0.2155  0.9850
 4223SOL     OW14109   1.433   7.537   5.616  0.2899 -0.0522 -0.0897
 4223SOL    HW114110   1.497   7.475   5.652  1.0140  1.7730  1.9793
 4223SOL    HW214111   1.367   7.482   5.574  1.4847 -2.1486  0.6519
 4224SOL     OW14112   5.651   4.385   4.862  0.6228 -0.2542  0.3431
 4224SOL    HW114113   5.661   4.470   4.904 -0.0161 -0.4039  0.8214
 4224SOL    HW214114   5.738   4.365   4.826  1.4765 -0.5235  2.3808
 4225SOL     OW14115   3.727   5.033   3.479 -0.0593 -0.6390 -0.0779
 4225SOL    HW114116   3.783   5.045   3.556 -0.9194 -0.5319  0.5394
 4225SOL    HW214117   3.752   5.104   3.420  0.0323 -0.2265  0.4482
 4226SOL     OW14118   5.813   7.161   9.714 -0.2750  0.2021 -0.2052
 4226SOL    HW114119   5.799   7.219   9.640 -2.4307  0.0192 -0.0026
 4226SOL    HW214120   5.903   7.129   9.703 -0.0739  1.2373 -1.9444
 4227SOL     OW14121   5.302   3.959   6.161 -0.0686 -0.3188  0.6051
 4227SOL    HW114122   5.219   3.983   6.120  0.8597  1.0100 -0.5891
 4227SOL    HW214123   5.306   4.013   6.240  0.7267  1.4978 -0.6114
 4228SOL     OW14124   4.759   6.824   4.005  0.8666  0.5477 -0.0090
 4228SOL    HW114125   4.769   6.810   3.911 -1.2797  1.3841 -0.4040
 4228SOL    HW214126   4.737   6.738   4.040 -1.3207  0.7555 -0.7621
 4229SOL     OW14127   6.230   4.465   9.043  0.3878 -0.3765 -0.3112
 4229SOL    HW114128   6.270   4.494   8.960 -0.1561  0.9134 -0.1401
 4229SOL    HW214129   6.159   4.526   9.058 -1.1569 -2.1294 -0.1595
 4230SOL     OW14130   0.214   6.305  11.344  0.2503 -0.3229  0.0203
 4230SOL    HW114131   0.245   6.389  11.311 -0.3529 -0.1691 -0.1663
 4230SOL    HW214132   0.288   6.270  11.394  0.1989  0.7169  0.8624
 4231SOL     OW14133   2.986   7.352  10.560 -0.5260 -0.0080 -0.0950
 4231SOL    HW114134   2.964   7.445  10.562 -0.4745 -0.0183  1.0782
 4231SOL    HW214135   3.005   7.334  10.467 -0.7958  1.0774 -0.3696
 4232SOL     OW14136   6.809   4.329   2.393  0.7871  0.1081  0.0446
 4232SOL    HW114137   6.870   4.260   2.367  1.9326  0.1848  2.3403
 4232SOL    HW214138   6.763   4.294   2.469 -0.3135  1.0039 -0.1768
 4233SOL     OW14139   3.118   3.408  11.564  0.1416  0.2882 -0.2733
 4233SOL    HW114140   3.055   3.468  11.524  0.2813 -0.3757 -1.5267
 4233SOL    HW214141   3.201   3.456  11.562 -0.1721  0.9217  0.8198
 4234SOL     OW14142   0.343   4.206   7.568 -0.2455 -0.2059  0.0727
 4234SOL    HW114143   0.430   4.235   7.596 -0.0154  1.2829 -2.0080
 4234SOL    HW214144   0.359   4.124   7.521 -0.1857 -0.6625  0.8512
 4235SOL     OW14145   4.678   6.838   1.208  0.4692 -0.1796 -0.3441
 4235SOL    HW114146   4.756   6.804   1.252  1.6261  1.9763 -0.5538
 4235SOL    HW214147   4.688   6.933   1.213 -0.6481  0.1668 -3.0224
 4236SOL     OW14148   3.261   5.976   0.823 -0.0742 -0.1348  0.2368
 4236SOL    HW114149   3.260   6.032   0.745  0.5131 -0.5590 -0.0820
 4236SOL    HW214150   3.172   5.982   0.857 -0.5665 -0.5648 -0.9228
 4237SOL     OW14151   1.178   4.368   5.187 -0.6749 -0.0096 -0.0625
 4237SOL    HW114152   1.124   4.297   5.221 -2.0299  0.8470 -0.3365
 4237SOL    HW214153   1.207   4.415   5.265 -1.4509  0.2976  0.0571
 4238SOL     OW14154   7.910   3.877   2.021 -0.1258  0.2156 -0.0468
 4238SOL    HW114155   7.980   3.900   1.959  0.8818 -0.6488  0.7320
 4238SOL    HW214156   7.853   3.819   1.972  2.1892 -2.7955  0.5317
 4239SOL     OW14157   2.590   5.278  11.108 -0.4483  0.4368 -0.2983
 4239SOL    HW114158   2.557   5.203  11.058  1.0004  0.4683 -1.3663
 4239SOL    HW214159   2.621   5.339  11.042  2.2294  0.1629  0.5694
 4240SOL     OW14160   7.625   7.904   8.956  0.1695 -0.5831  0.0055
 4240SOL    HW114161   7.661   7.929   8.871  0.6895 -0.3962  0.2773
 4240SOL    HW214162   7.666   7.965   9.018  1.4136 -2.0353  0.6731
 4241SOL     OW14163   5.622   2.792   1.608 -0.1078 -0.0139 -0.1381
 4241SOL    HW114164   5.713   2.769   1.587  0.4043  0.9065  0.9529
 4241SOL    HW214165   5.611   2.760   1.698 -1.2430 -1.1166 -0.6414
 4242SOL     OW14166   2.991   6.164  11.365  0.0851  0.6126 -0.0167
 4242SOL    HW114167   2.896   6.163  11.352  0.1230  1.7268 -0.5025
 4242SOL    HW214168   3.020   6.077  11.339 -0.9404 -0.1763  1.3139
 4243SOL     OW14169   0.460   4.501   7.783 -0.0531  0.2466  0.2929
 4243SOL    HW114170   0.436   4.557   7.856  1.1974 -0.9513  1.6939
 4243SOL    HW214171   0.453   4.412   7.817  1.1469 -0.3164 -0.8389
 4244SOL     OW14172   1.205   2.544   1.878  0.0893  0.2645  0.0037
 4244SOL    HW114173   1.149   2.563   1.803 -0.4690  0.7014  0.5210
 4244SOL    HW214174   1.265   2.619   1.882  1.6006 -0.8112 -1.3294
 4245SOL     OW14175   0.828   1.215   9.661 -0.4515  0.4977 -0.1189
 4245SOL    HW114176   0.849   1.129   9.699 -1.1551  0.5763  0.4670
 4245SOL    HW214177   0.745   1.202   9.615 -0.0607  0.6302 -0.8854
 4246SOL     OW14178   2.998   2.120   5.892 -0.4195  0.1185 -0.0167
 4246SOL    HW114179   2.979   2.203   5.849 -0.3765  0.2752  0.2606
 4246SOL    HW214180   3.064   2.141   5.958 -0.3838 -0.1423  0.0349
 4247SOL     OW14181   3.604   4.043  12.268 -0.2541  0.2494 -0.1172
 4247SOL    HW114182   3.646   3.980  12.209  1.3458 -0.3672  1.5556
 4247SOL    HW214183   3.528   4.075  12.220  1.3531  0.3668 -2.8158
 4248SOL     OW14184   5.996   7.544   1.966  0.3488  0.0485  0.0647
 4248SOL    HW114185   6.019   7.599   1.890 -0.3324  2.4235  1.4715
 4248SOL    HW214186   6.002   7.603   2.041 -3.8954 -0.7645  1.3205
 4249SOL     OW14187   2.306   5.423   1.007 -0.0333 -0.1663  0.4970
 4249SOL    HW114188   2.223   5.469   0.996  0.5117  0.5261 -0.9640
 4249SOL    HW214189   2.359   5.483   1.060  0.2076  0.3069 -0.2616
 4250SOL     OW14190   0.367   1.487  11.429  0.0688  0.2976 -0.3058
 4250SOL    HW114191   0.354   1.570  11.475 -0.3941  0.2760 -0.4004
 4250SOL    HW214192   0.427   1.509  11.357  0.6716  0.3647  0.2043
 4251SOL     OW14193   4.376   7.097   8.769  0.2355  0.4789  0.1546
 4251SOL    HW114194   4.471   7.093   8.779  0.3142  0.0237 -0.6070
 4251SOL    HW214195   4.341   7.087   8.857  0.8869 -0.0896  0.3583
 4252SOL     OW14196   0.260   2.843   8.827 -0.2049 -0.0937 -0.0397
 4252SOL    HW114197   0.244   2.792   8.906 -1.1781 -1.3814 -1.0187
 4252SOL    HW214198   0.174   2.874   8.800 -0.0377 -0.5537 -1.1550
 4253SOL     OW14199   1.464   3.029   0.590 -0.1430 -0.0508 -0.0471
 4253SOL    HW114200   1.492   2.982   0.669  1.3819 -1.2238 -1.2182
 4253SOL    HW214201   1.391   2.978   0.556  0.1733 -0.4259 -0.1810
 4254SOL     OW14202   0.214   7.658   2.549  0.6748  0.6301 -0.0492
 4254SOL    HW114203   0.214   7.562   2.544  3.4936  0.5936 -0.7773
 4254SOL    HW214204   0.162   7.677   2.627  0.5930 -1.5274  0.4923
 4255SOL     OW14205   1.760   2.991   4.606 -0.4174 -0.2061 -0.0145
 4255SOL    HW114206   1.841   2.940   4.592  0.2364  0.5271  1.0021
 4255SOL    HW214207   1.745   2.987   4.700 -2.9928 -2.4149 -0.4209
 4256SOL     OW14208   6.328   0.847   4.256 -0.2380 -0.3568  0.2111
 4256SOL    HW114209   6.359   0.917   4.198 -3.9397  0.1936 -1.4060
 4256SOL    HW214210   6.345   0.880   4.345  2.4716  0.3110 -0.4613
 4257SOL     OW14211   0.008   3.597   0.932  0.4325 -0.5269  0.8420
 4257SOL    HW114212  -0.020   3.659   0.999  1.0527  0.5110  0.1636
 4257SOL    HW214213  -0.028   3.632   0.850  0.7584 -1.0840  0.4513
 4258SOL     OW14214   0.611   1.936   9.535  0.7850  0.3351 -0.1798
 4258SOL    HW114215   0.682   1.987   9.497  0.6048  0.7387  0.0128
 4258SOL    HW214216   0.587   1.873   9.467 -0.2657  1.7526 -1.2005
 4259SOL     OW14217   2.693   5.306   1.581  0.3914 -0.0091  0.6170
 4259SOL    HW114218   2.743   5.225   1.586  0.0331 -0.1922  1.4467
 4259SOL    HW214219   2.692   5.328   1.488  1.6399 -0.2269  0.5372
 4260SOL     OW14220   0.236   4.551   1.999  0.4301 -0.0907 -0.5824
 4260SOL    HW114221   0.159   4.604   1.976  0.5209  0.9884  1.4337
 4260SOL    HW214222   0.304   4.580   1.938  0.3667  1.9154  0.2097
 4261SOL     OW14223   3.360   0.300   5.637  0.3208 -0.1343 -0.7771
 4261SOL    HW114224   3.401   0.360   5.574  0.6944  1.3505  0.7808
 4261SOL    HW214225   3.434   0.267   5.689 -0.1773  0.6905  0.5077
 4262SOL     OW14226   7.144   5.021   4.594  0.3449 -0.0736 -0.0966
 4262SOL    HW114227   7.155   5.014   4.500 -0.0002 -0.0514 -0.1410
 4262SOL    HW214228   7.174   4.936   4.628 -0.3168 -0.4007 -0.3025
 4263SOL     OW14229   7.821   3.904   8.279  0.4095  0.1675  0.6110
 4263SOL    HW114230   7.727   3.898   8.293  0.5414 -0.4346  1.3157
 4263SOL    HW214231   7.859   3.911   8.367  0.8794  3.4470  0.2526
 4264SOL     OW14232   5.765   6.344   0.677  0.1958  0.2884 -0.2892
 4264SOL    HW114233   5.695   6.323   0.615  1.3772  0.5219 -1.7670
 4264SOL    HW214234   5.780   6.438   0.666  0.4140  0.3395  0.3749
 4265SOL     OW14235   0.231   3.451   2.765 -0.0533 -0.2984 -0.5692
 4265SOL    HW114236   0.211   3.357   2.767  2.5570 -0.9567  1.9313
 4265SOL    HW214237   0.178   3.487   2.836  1.5587 -0.5967  0.8297
 4266SOL     OW14238   4.452   6.777   4.314  0.2814  0.0771 -0.4528
 4266SOL    HW114239   4.539   6.794   4.350  0.0928 -0.7812  0.4348
 4266SOL    HW214240   4.440   6.846   4.248  1.1518  0.9210  0.2349
 4267SOL     OW14241   1.979   0.412   3.814 -0.2895 -0.8025 -0.2900
 4267SOL    HW114242   1.907   0.439   3.872 -0.7636 -0.7311 -0.8974
 4267SOL    HW214243   1.991   0.319   3.832  1.3614 -0.2433  1.8319
 4268SOL     OW14244   4.622   6.938   6.738 -0.0689  0.4390 -0.2664
 4268SOL    HW114245   4.678   6.969   6.810 -0.4709 -1.5745  0.9797
 4268SOL    HW214246   4.667   6.860   6.704  0.2660  1.4996 -2.4717
 4269SOL     OW14247   5.756   2.041   2.208 -0.3370  0.8342 -0.2218
 4269SOL    HW114248   5.799   2.036   2.123 -0.5617  1.7508 -0.3971
 4269SOL    HW214249   5.663   2.031   2.190 -0.6156  3.2865 -0.3733
 4270SOL     OW14250   5.989   3.185   0.993 -0.3888  0.2337 -0.4435
 4270SOL    HW114251   6.077   3.216   0.971 -0.2413  0.5721  0.5699
 4270SOL    HW214252   5.943   3.264   1.023 -0.8695 -0.0352 -0.4667
 4271SOL     OW14253   4.387   5.288   5.640  0.0552 -0.1969  0.1438
 4271SOL    HW114254   4.377   5.200   5.674  2.5117 -0.0242  1.5085
 4271SOL    HW214255   4.300   5.327   5.647 -0.9698 -2.3257 -0.0879
 4272SOL     OW14256   0.338   6.767  10.427  0.0478  0.5871 -0.0826
 4272SOL    HW114257   0.269   6.757  10.361  0.2625 -1.8252 -0.0383
 4272SOL    HW214258   0.402   6.699  10.406 -0.1884 -0.7537  2.9061
 4273SOL     OW14259   1.294   6.374   7.333  0.3785  0.2361 -0.1155
 4273SOL    HW114260   1.257   6.417   7.410 -0.7332 -2.2931  0.8858
 4273SOL    HW214261   1.221   6.323   7.297  1.6651 -1.0718 -0.9967
 4274SOL     OW14262   5.565   5.471   1.430  0.4128 -0.3679  0.4985
 4274SOL    HW114263   5.599   5.505   1.513  0.2874  1.0879 -0.0236
 4274SOL    HW214264   5.626   5.502   1.364 -0.0135 -0.7046 -0.0637
 4275SOL     OW14265   1.962   7.933   8.673  0.5887  0.5844  0.0301
 4275SOL    HW114266   1.876   7.954   8.637  0.0012 -0.9422  0.4626
 4275SOL    HW214267   2.023   7.957   8.604 -0.3183  0.1097 -0.9742
 4276SOL     OW14268   1.178   5.210   6.121  0.4339 -0.1659 -0.1308
 4276SOL    HW114269   1.197   5.247   6.034 -0.0723  1.7690  0.5331
 4276SOL    HW214270   1.207   5.278   6.182 -0.4729 -0.9245  1.1658
 4277SOL     OW14271   7.520   7.817   8.245 -0.3599 -0.0302  0.3109
 4277SOL    HW114272   7.606   7.813   8.203 -0.8068 -0.4760 -0.5904
 4277SOL    HW214273   7.469   7.749   8.201 -1.9459  1.8517 -0.9243
 4278SOL     OW14274   2.957   1.127   4.159 -0.1128 -0.5620 -0.0665
 4278SOL    HW114275   3.049   1.153   4.163  0.1667 -0.5896 -3.2799
 4278SOL    HW214276   2.957   1.035   4.187  0.9255 -0.6626 -0.3429
 4279SOL     OW14277   4.962   1.173   6.047 -0.4727  0.6251  0.1823
 4279SOL    HW114278   5.011   1.254   6.056 -0.9745  1.2541 -2.0626
 4279SOL    HW214279   4.890   1.181   6.109 -0.1188  1.5784  0.4794
 4280SOL     OW14280   4.003   0.142   8.206 -0.4268 -0.0612  0.3545
 4280SOL    HW114281   4.069   0.121   8.273 -1.0908 -1.0610  0.7179
 4280SOL    HW214282   4.054   0.172   8.131  0.4690 -0.8749  0.6094
 4281SOL     OW14283   4.699   5.836   6.432  0.2400  0.2020 -0.1058
 4281SOL    HW114284   4.662   5.829   6.520 -0.7454  0.4605 -0.4840
 4281SOL    HW214285   4.686   5.749   6.394 -0.4014  0.4100 -0.3865
 4282SOL     OW14286   0.114   3.573   2.298 -0.3379 -0.3263  0.0108
 4282SOL    HW114287   0.068   3.654   2.274  2.3986  1.1103 -0.8446
 4282SOL    HW214288   0.144   3.589   2.388  0.3096 -0.3158 -0.2031
 4283SOL     OW14289   5.610   3.320   1.639  0.5398  0.2270 -0.1643
 4283SOL    HW114290   5.528   3.318   1.588  0.0077 -2.3070  0.6707
 4283SOL    HW214291   5.628   3.413   1.651 -2.1623  0.8760 -0.4884
 4284SOL     OW14292   7.092   2.417   3.181  0.0637 -0.5344 -0.3862
 4284SOL    HW114293   7.062   2.490   3.127  0.3447  1.3347  1.8341
 4284SOL    HW214294   7.014   2.363   3.193 -0.4219 -0.0423 -1.1821
 4285SOL     OW14295   0.530   2.448   9.919  0.0643  0.3655 -0.1192
 4285SOL    HW114296   0.560   2.537   9.936  0.7693  0.3062 -0.9668
 4285SOL    HW214297   0.477   2.455   9.839 -0.6427  0.1618  0.3191
 4286SOL     OW14298   5.562   3.775  11.979 -0.6802  0.3976  0.1609
 4286SOL    HW114299   5.596   3.731  11.901  0.3035 -1.4103  1.5426
 4286SOL    HW214300   5.467   3.766  11.972 -0.7916  2.1756 -1.8392
 4287SOL     OW14301   0.530   0.695   4.451  0.1162  0.0859 -0.3531
 4287SOL    HW114302   0.504   0.711   4.360 -1.0932 -1.0301 -0.2466
 4287SOL    HW214303   0.593   0.622   4.445  0.6819  0.5701 -0.3525
 4288SOL     OW14304   6.238   0.603   7.817 -0.8545  0.5029 -0.9893
 4288SOL    HW114305   6.319   0.653   7.813  0.4888 -1.3975  0.5575
 4288SOL    HW214306   6.173   0.665   7.849  0.6254  1.4321  0.3415
 4289SOL     OW14307   0.328   7.946   4.099  0.0122  0.0686  0.1019
 4289SOL    HW114308   0.271   7.875   4.129  0.5391  0.1271  1.2983
 4289SOL    HW214309   0.278   8.026   4.116  0.3133  0.1021  0.8624
 4290SOL     OW14310   2.983   6.208   3.184 -0.0890  0.0648  0.0091
 4290SOL    HW114311   3.003   6.263   3.108 -0.4785  1.0544  0.5994
 4290SOL    HW214312   3.044   6.237   3.251 -0.8572  0.3724  0.5892
 4291SOL     OW14313   3.372   7.510   3.476 -0.1096 -0.1845 -0.0441
 4291SOL    HW114314   3.297   7.452   3.492  0.3496 -0.7276  0.1757
 4291SOL    HW214315   3.341   7.571   3.409 -1.2324  0.5178  1.0676
 4292SOL     OW14316   6.600   5.085   7.233  0.6524 -0.4649  0.2279
 4292SOL    HW114317   6.514   5.048   7.213 -0.0637 -0.4350  2.8958
 4292SOL    HW214318   6.597   5.173   7.197 -1.0927  0.0949  1.5892
 4293SOL     OW14319   4.225   0.674   3.370  0.0912  0.3772  0.0439
 4293SOL    HW114320   4.279   0.597   3.351 -0.0215  0.2573  0.2100
 4293SOL    HW214321   4.275   0.747   3.334  0.2674  0.2438  0.0144
 4294SOL     OW14322   5.904   2.794  11.290  0.1624  0.5329 -0.3867
 4294SOL    HW114323   5.986   2.763  11.251 -0.9801 -0.3491 -2.2377
 4294SOL    HW214324   5.836   2.762  11.231 -1.4798  1.9488  0.6393
 4295SOL     OW14325   0.808   3.910   7.967  0.1864 -0.1754  0.1980
 4295SOL    HW114326   0.870   3.892   8.037 -2.6001 -0.6058  2.7889
 4295SOL    HW214327   0.807   3.831   7.913  1.4029 -0.3793  0.4545
 4296SOL     OW14328   7.456   0.757  11.865 -0.2012  0.0700  0.5642
 4296SOL    HW114329   7.552   0.750  11.862 -0.2429 -0.3182 -0.1847
 4296SOL    HW214330   7.439   0.851  11.869  0.2080  0.1402  0.7542
 4297SOL     OW14331   5.565   6.054   7.139  0.5307  0.3374  0.2141
 4297SOL    HW114332   5.611   6.041   7.221 -2.7579 -0.3038  2.1300
 4297SOL    HW214333   5.579   5.974   7.089  1.2494  0.0813  0.8206
 4298SOL     OW14334   4.963   7.708   6.935  0.7544 -0.5310 -0.4147
 4298SOL    HW114335   4.997   7.735   6.850  0.7437  0.9929  0.0263
 4298SOL    HW214336   4.886   7.655   6.914  0.9316 -0.4409 -1.3556
 4299SOL     OW14337   3.152   7.639  11.970  0.5350 -0.1608 -0.3588
 4299SOL    HW114338   3.242   7.656  11.998  1.2017 -1.0727 -1.8396
 4299SOL    HW214339   3.161   7.601  11.883 -1.2890 -0.3938 -0.4740
 4300SOL     OW14340   6.480   2.847   6.393  0.5041 -0.4822  0.0532
 4300SOL    HW114341   6.493   2.828   6.301  0.0681 -0.4744 -0.0137
 4300SOL    HW214342   6.543   2.792   6.439  0.4212 -0.8097 -0.2272
 4301SOL     OW14343   4.848   7.252   6.819  0.1537 -0.3747  0.3854
 4301SOL    HW114344   4.752   7.257   6.821  0.1345 -1.0629  1.8848
 4301SOL    HW214345   4.877   7.309   6.890  0.9358  0.8320 -0.8497
 4302SOL     OW14346   6.293   1.492   9.417 -0.0943 -0.1554  0.7986
 4302SOL    HW114347   6.218   1.514   9.362 -1.3185 -1.4682  1.8891
 4302SOL    HW214348   6.358   1.457   9.356 -0.8744 -0.2418 -0.0003
 4303SOL     OW14349   4.044   5.182   0.764  0.1109  0.2575 -0.1051
 4303SOL    HW114350   3.999   5.122   0.823  1.0903 -0.1460  0.2391
 4303SOL    HW214351   4.086   5.246   0.821  0.1724  0.5032 -0.4161
 4304SOL     OW14352   6.318   0.348   7.427 -0.0148 -0.0297  0.1538
 4304SOL    HW114353   6.414   0.352   7.425  0.0925 -1.6345  0.9278
 4304SOL    HW214354   6.298   0.258   7.453 -1.7648 -0.0193 -1.0159
 4305SOL     OW14355   5.168   5.976   5.412  0.1092 -0.3452  0.3279
 4305SOL    HW114356   5.237   5.910   5.425 -0.9804 -1.2915  1.5355
 4305SOL    HW214357   5.213   6.060   5.421  1.4214 -0.8984 -0.6850
 4306SOL     OW14358   6.559   0.470   5.447 -0.1748 -0.5062 -0.3475
 4306SOL    HW114359   6.582   0.389   5.493  0.3581  0.5919  1.4332
 4306SOL    HW214360   6.475   0.452   5.406  0.2913 -2.1865 -0.6340
 4307SOL     OW14361   3.261   6.792   7.824  0.1179 -0.0012 -0.2759
 4307SOL    HW114362   3.329   6.735   7.859 -0.1799 -0.7035 -0.7992
 4307SOL    HW214363   3.206   6.814   7.899  1.4756  1.4122  0.3575
 4308SOL     OW14364   4.062   7.603   4.291  0.0828  0.3995 -0.3993
 4308SOL    HW114365   4.045   7.585   4.384 -0.7480  2.6631 -0.0638
 4308SOL    HW214366   4.157   7.614   4.287  0.0734  0.8117  0.2999
 4309SOL     OW14367   7.369   5.571   7.879  0.0986 -0.4540  0.2125
 4309SOL    HW114368   7.405   5.656   7.905 -1.7689  0.4585 -0.0049
 4309SOL    HW214369   7.424   5.507   7.924  2.5813  0.7550 -0.8842
 4310SOL     OW14370   4.610   4.086   1.003 -0.6834  0.2924 -0.1778
 4310SOL    HW114371   4.672   4.084   0.931 -0.5346  1.5726 -0.1158
 4310SOL    HW214372   4.534   4.133   0.968 -0.9139  0.2595  0.2638
 4311SOL     OW14373   2.377   2.110   8.174  0.1047  0.8220 -0.4720
 4311SOL    HW114374   2.318   2.051   8.221  0.2854  0.9471 -0.0871
 4311SOL    HW214375   2.409   2.171   8.241  0.9066  0.5671 -0.6221
 4312SOL     OW14376   1.006   3.367   0.922  0.5195  0.0844 -0.1491
 4312SOL    HW114377   1.088   3.398   0.959  0.9390 -1.5342  0.3470
 4312SOL    HW214378   0.982   3.291   0.976 -1.5700  0.8150  0.0459
 4313SOL     OW14379   6.774   7.401   5.600 -0.3377 -1.0160  0.3990
 4313SOL    HW114380   6.841   7.468   5.616 -0.0384 -1.2037 -0.0586
 4313SOL    HW214381   6.694   7.437   5.640 -0.1823 -0.3796  0.1537
 4314SOL     OW14382   2.600   6.675  11.647 -0.1402 -0.2589  0.0409
 4314SOL    HW114383   2.613   6.699  11.555 -0.3008  1.1385  0.3604
 4314SOL    HW214384   2.686   6.685  11.686 -0.4406  0.9516  0.4195
 4315SOL     OW14385   0.554   1.731   1.024  0.2693  0.2026  0.4879
 4315SOL    HW114386   0.512   1.817   1.030 -0.8635 -0.3997  1.3245
 4315SOL    HW214387   0.483   1.669   1.008  1.0949 -0.5857 -0.3089
 4316SOL     OW14388   5.274   5.395   6.164 -0.0685  0.2477 -0.0303
 4316SOL    HW114389   5.348   5.335   6.175  0.2493  0.7717  0.8253
 4316SOL    HW214390   5.315   5.479   6.144 -0.4340  0.5257  0.3793
 4317SOL     OW14391   4.668   0.932   3.493 -0.3506 -0.4105 -0.6144
 4317SOL    HW114392   4.631   0.917   3.406  0.1333  0.8732 -1.0622
 4317SOL    HW214393   4.682   1.026   3.498 -0.7572 -0.4041  1.0323
 4318SOL     OW14394   3.440   5.206   6.041  0.0663 -0.4888 -0.0757
 4318SOL    HW114395   3.397   5.125   6.066 -0.0267  0.4053  3.1186
 4318SOL    HW214396   3.386   5.275   6.080  2.4583  0.8392  1.1325
 4319SOL     OW14397   5.873   5.779   8.876 -0.4045 -0.3007  0.4678
 4319SOL    HW114398   5.892   5.692   8.843 -0.0823  0.5099 -1.6465
 4319SOL    HW214399   5.954   5.807   8.918 -0.1024 -0.5613  0.0677
 4320SOL     OW14400   2.351   5.858   7.174 -0.2834  0.2708 -0.0052
 4320SOL    HW114401   2.419   5.792   7.157 -1.3890 -1.0970  0.6330
 4320SOL    HW214402   2.349   5.911   7.095  0.3322 -0.7514 -0.7357
 4321SOL     OW14403   5.769   4.011   4.582 -0.1911  0.5757  0.0598
 4321SOL    HW114404   5.695   4.045   4.633  1.7068  1.3632  2.5071
 4321SOL    HW214405   5.777   4.070   4.508 -0.5861  1.9305  1.0652
 4322SOL     OW14406   1.753   7.198   5.870  0.0366  0.5048  0.1671
 4322SOL    HW114407   1.756   7.103   5.878  1.2012  0.6923  2.8041
 4322SOL    HW214408   1.819   7.218   5.804  1.7008 -0.3990  1.4878
 4323SOL     OW14409   5.351   7.550  11.965 -0.0849 -0.0910  0.3604
 4323SOL    HW114410   5.423   7.591  11.916 -1.2673  1.9914  0.2380
 4323SOL    HW214411   5.386   7.539  12.054  0.4653  0.6711  0.2487
 4324SOL     OW14412   7.489   3.295   1.543  0.4787  0.4216 -0.2699
 4324SOL    HW114413   7.475   3.379   1.499  1.8542  0.0017 -1.5866
 4324SOL    HW214414   7.454   3.308   1.632 -0.5641  1.9255 -0.8666
 4325SOL     OW14415   1.351   2.048   0.295 -0.0544  0.3056 -0.0067
 4325SOL    HW114416   1.335   1.954   0.286 -0.2133  0.1420  1.5727
 4325SOL    HW214417   1.358   2.081   0.205 -1.1927 -1.0101 -0.6131
 4326SOL     OW14418   5.602   7.773   0.802 -0.2710 -0.4575 -0.1069
 4326SOL    HW114419   5.553   7.725   0.735  0.1596 -1.4207  0.2527
 4326SOL    HW214420   5.626   7.855   0.759 -2.8367  0.4298 -0.0653
 4327SOL     OW14421   6.318   0.048  11.538 -0.2187 -0.0204  0.1369
 4327SOL    HW114422   6.285   0.129  11.579  1.4535  1.0421 -0.5024
 4327SOL    HW214423   6.348  -0.005  11.611  0.6538  0.8852  0.4569
 4328SOL     OW14424   7.846   6.388   4.741 -0.1371  0.3647 -0.2769
 4328SOL    HW114425   7.878   6.382   4.831  0.4903 -0.5186 -0.5438
 4328SOL    HW214426   7.787   6.313   4.732 -1.3995  1.3028 -0.1569
 4329SOL     OW14427   6.272   4.033  10.064  0.0319 -0.2487  0.3604
 4329SOL    HW114428   6.261   3.954  10.010  3.1147 -0.3801 -0.2496
 4329SOL    HW214429   6.216   4.098  10.021  1.0399 -0.8324 -2.0569
 4330SOL     OW14430   3.656   1.206   7.971  0.2081 -0.4802 -0.4270
 4330SOL    HW114431   3.564   1.231   7.982  0.1521 -0.6459 -0.5175
 4330SOL    HW214432   3.696   1.280   7.925  0.2516 -0.1550  0.1322
 4331SOL     OW14433   6.700   4.078   6.982  0.0738  0.4713 -0.1680
 4331SOL    HW114434   6.667   4.034   7.061 -0.7171 -1.0079 -1.2781
 4331SOL    HW214435   6.621   4.107   6.937  0.4407  0.0620 -1.0988
 4332SOL     OW14436   2.051   4.345   0.036 -0.1441 -0.1663  0.5226
 4332SOL    HW114437   2.052   4.262   0.084  0.1792 -0.3189  0.2522
 4332SOL    HW214438   1.958   4.360   0.018 -0.0916 -1.6027 -1.3366
 4333SOL     OW14439   0.008   5.558  10.871 -0.4623 -0.0040  0.1932
 4333SOL    HW114440  -0.023   5.573  10.782 -1.6035 -0.2677  0.5357
 4333SOL    HW214441   0.103   5.564  10.864 -0.5297 -0.0947 -1.0535
 4334SOL     OW14442   3.635   0.646   8.420 -0.0133 -0.5703  0.3119
 4334SOL    HW114443   3.600   0.598   8.495 -1.5186 -0.2387 -0.1424
 4334SOL    HW214444   3.718   0.681   8.451  0.6933 -2.6736  0.9423
 4335SOL     OW14445   7.565   1.212   4.215  0.4004  0.4694 -0.3455
 4335SOL    HW114446   7.506   1.138   4.206  0.0410  0.7636 -0.4195
 4335SOL    HW214447   7.542   1.271   4.143  1.4431  0.1387 -0.9790
 4336SOL     OW14448   1.188   6.209   4.470 -0.1246  0.5223  0.1164
 4336SOL    HW114449   1.158   6.122   4.446  0.4263  0.1472  0.7414
 4336SOL    HW214450   1.113   6.250   4.513 -0.8169  0.8631 -1.3615
 4337SOL     OW14451   6.385   5.109   2.612 -0.0253  0.4378  0.3736
 4337SOL    HW114452   6.427   5.106   2.698 -0.0370  0.6316  0.3868
 4337SOL    HW214453   6.295   5.079   2.629  0.3391 -0.7967  0.1960
 4338SOL     OW14454   3.853   1.742   2.677  0.0952  0.1772  0.3362
 4338SOL    HW114455   3.870   1.830   2.644 -0.3525  0.0762 -0.1602
 4338SOL    HW214456   3.932   1.693   2.654  0.6166  0.5904  1.1655
 4339SOL     OW14457   4.910   2.939   9.354 -0.3125  0.3503 -0.1893
 4339SOL    HW114458   4.871   3.014   9.398  0.0579 -0.4490  1.6160
 4339SOL    HW214459   4.976   2.907   9.416  1.3472  0.0641 -2.0019
 4340SOL     OW14460   7.549   2.172   9.647  0.4249  0.3653  0.0873
 4340SOL    HW114461   7.536   2.079   9.666  0.3767 -0.2343 -2.4469
 4340SOL    HW214462   7.617   2.201   9.708  0.2050 -1.2385  1.1381
 4341SOL     OW14463   0.110   3.326  11.730 -0.3833 -0.1975 -0.3100
 4341SOL    HW114464   0.020   3.292  11.734 -0.2594 -0.4213  2.0437
 4341SOL    HW214465   0.139   3.325  11.821  1.6493  0.8865 -0.9079
 4342SOL     OW14466   2.060   6.341   4.169 -0.1531 -0.1745  0.0965
 4342SOL    HW114467   2.057   6.382   4.256  3.7591 -0.3901  0.4698
 4342SOL    HW214468   2.015   6.404   4.112 -0.9098  0.9894  1.8895
 4343SOL     OW14469   6.022   3.138  12.115 -0.0763  0.4494  0.3892
 4343SOL    HW114470   5.941   3.132  12.166 -1.1521 -1.6218 -1.3844
 4343SOL    HW214471   6.073   3.205  12.159 -2.3266  1.1238  2.1790
 4344SOL     OW14472   1.003   6.674   2.747 -0.0854 -0.5938 -0.7228
 4344SOL    HW114473   1.082   6.690   2.799  0.6803 -0.4547 -1.8860
 4344SOL    HW214474   0.932   6.670   2.812  0.6041  1.0574  0.2004
 4345SOL     OW14475   3.664   3.163   2.131  0.4697  0.0176 -0.3574
 4345SOL    HW114476   3.696   3.079   2.163 -1.0025 -0.8345 -1.0134
 4345SOL    HW214477   3.633   3.145   2.042 -2.2974  0.5976  0.3980
 4346SOL     OW14478   2.418   7.487   5.627  0.0858 -0.4488  0.1547
 4346SOL    HW114479   2.466   7.410   5.596 -1.2331 -0.9253 -0.7871
 4346SOL    HW214480   2.428   7.550   5.555 -0.7147 -0.5750 -0.0789
 4347SOL     OW14481   3.658   2.022   9.796  0.4427  0.1825 -0.3301
 4347SOL    HW114482   3.720   1.960   9.756  0.4134  0.1536 -0.3306
 4347SOL    HW214483   3.578   1.972   9.808  0.6875 -0.0245  0.4709
 4348SOL     OW14484   7.949   0.740  11.470  0.0460 -0.2547 -0.1161
 4348SOL    HW114485   7.887   0.780  11.409 -1.5278 -0.8495  1.0289
 4348SOL    HW214486   8.016   0.807  11.482 -0.8749  0.8058 -0.6595
 4349SOL     OW14487   5.895   0.146   9.192  0.3344 -0.3097 -0.1621
 4349SOL    HW114488   5.803   0.160   9.215  0.2521 -0.8218 -0.1726
 4349SOL    HW214489   5.902   0.052   9.178  0.8337 -0.2554 -0.2885
 4350SOL     OW14490   6.519   4.826   2.275 -0.5072  0.0496 -0.3443
 4350SOL    HW114491   6.446   4.801   2.332 -0.5224 -1.8897 -1.1261
 4350SOL    HW214492   6.589   4.852   2.335 -0.6121 -1.6674  0.5900
 4351SOL     OW14493   3.742   5.517   1.464 -0.0314 -0.0402  0.5434
 4351SOL    HW114494   3.680   5.589   1.463  0.4002  0.3415  0.7362
 4351SOL    HW214495   3.713   5.460   1.535  0.1091  0.3829  0.9453
 4352SOL     OW14496   5.104   6.255   4.628  0.2889 -0.4291 -0.0091
 4352SOL    HW114497   5.135   6.166   4.647 -0.3032 -0.6698 -0.1339
 4352SOL    HW214498   5.010   6.251   4.643 -0.1229 -0.4444 -2.2174
 4353SOL     OW14499   3.914   2.232   4.304 -0.5811 -0.1263 -0.2883
 4353SOL    HW114500   3.859   2.285   4.246 -0.2766 -0.7449 -1.1538
 4353SOL    HW214501   3.962   2.174   4.246 -1.0668 -1.5326  0.6508
 4354SOL     OW14502   7.095   0.833   7.063 -0.1977 -0.0637 -0.2548
 4354SOL    HW114503   7.023   0.771   7.067 -0.3533  0.1972  1.7670
 4354SOL    HW214504   7.074   0.899   7.129  0.7896  1.2461 -1.1939
 4355SOL     OW14505   4.604   0.776   7.793 -0.0037 -0.2576 -0.0743
 4355SOL    HW114506   4.660   0.698   7.796  0.5686  0.1702  2.3616
 4355SOL    HW214507   4.619   0.813   7.706  1.3207 -1.7076 -0.5144
 4356SOL     OW14508   4.920   3.816   9.927 -0.6171 -0.3753 -0.0967
 4356SOL    HW114509   4.999   3.870   9.920  0.0998 -1.2721  0.7966
 4356SOL    HW214510   4.952   3.726   9.928 -1.5737 -0.7310  1.0217
 4357SOL     OW14511   6.139   5.538   1.494 -0.4202  0.2279 -0.2477
 4357SOL    HW114512   6.080   5.491   1.552 -0.3616  0.0936 -0.2955
 4357SOL    HW214513   6.157   5.621   1.539 -0.8408  0.3748 -0.3505
 4358SOL     OW14514   6.990   7.430   6.009  0.7085  0.4536 -0.2355
 4358SOL    HW114515   6.897   7.442   5.993  0.8397  0.7590 -0.8354
 4358SOL    HW214516   7.020   7.514   6.044  0.6994  0.2512  0.2643
 4359SOL     OW14517   3.444   6.393   4.091 -0.0670 -0.0011 -0.0761
 4359SOL    HW114518   3.495   6.415   4.169  0.4795  1.2246 -0.7526
 4359SOL    HW214519   3.437   6.297   4.093  1.6597 -0.1588  0.4267
 4360SOL     OW14520   0.892   4.166   8.426  0.2900  0.2384  0.8371
 4360SOL    HW114521   0.963   4.103   8.411  0.9034  0.9272  0.7680
 4360SOL    HW214522   0.929   4.229   8.489 -0.2405  0.6306  0.7625
 4361SOL     OW14523   1.276   3.266   9.098 -0.3052 -1.0218 -0.1349
 4361SOL    HW114524   1.257   3.184   9.052 -0.6443 -1.7431  1.2395
 4361SOL    HW214525   1.308   3.238   9.183 -0.1561  0.2884  0.2522
 4362SOL     OW14526   0.807   1.555   7.455  0.2715  0.0811 -0.1757
 4362SOL    HW114527   0.807   1.460   7.437 -0.6521  0.2699 -1.2794
 4362SOL    HW214528   0.863   1.591   7.386 -0.3945  0.4603 -0.5230
 4363SOL     OW14529   6.637   4.113  12.148 -0.3879  0.6976 -0.5203
 4363SOL    HW114530   6.557   4.074  12.182 -0.0646 -0.3027 -0.8600
 4363SOL    HW214531   6.707   4.060  12.187  0.1502  2.0310  0.3682
 4364SOL     OW14532   0.298   2.665   1.669 -0.3727  0.2675  0.0925
 4364SOL    HW114533   0.229   2.599   1.664 -0.9940  0.9754 -1.1237
 4364SOL    HW214534   0.379   2.617   1.651 -0.2356 -0.9079  3.1192
 4365SOL     OW14535   0.831   6.309   2.270 -0.1310  0.4005  0.4706
 4365SOL    HW114536   0.770   6.374   2.236 -0.3896  0.5656  1.2377
 4365SOL    HW214537   0.789   6.225   2.251  1.5088  0.2403 -3.1423
 4366SOL     OW14538   5.495   3.852  10.483  0.1612 -0.2765 -0.0557
 4366SOL    HW114539   5.492   3.867  10.578 -0.8591  0.2669 -0.1597
 4366SOL    HW214540   5.588   3.847  10.463  0.4240  0.5699  0.8401
 4367SOL     OW14541   6.891   1.258   5.256 -0.1699  0.6869 -0.6616
 4367SOL    HW114542   6.890   1.276   5.162  0.3448  1.2375 -0.5652
 4367SOL    HW214543   6.975   1.291   5.286 -0.1596  0.1499 -0.0740
 4368SOL     OW14544   1.367   7.681   4.951  0.5116  0.5539  0.0720
 4368SOL    HW114545   1.458   7.692   4.924  0.8289 -0.7156  0.5433
 4368SOL    HW214546   1.336   7.606   4.901  0.9926 -1.5848  2.7428
 4369SOL     OW14547   2.229   6.086   4.799  0.4582 -0.1894 -0.6171
 4369SOL    HW114548   2.209   6.096   4.892 -1.0030  1.5111 -1.0632
 4369SOL    HW214549   2.319   6.053   4.797  0.4521 -0.4490  1.3826
 4370SOL     OW14550   6.808   2.901   5.878  0.0128  0.0525  0.5371
 4370SOL    HW114551   6.732   2.957   5.894 -0.2244  0.2973 -1.2515
 4370SOL    HW214552   6.773   2.811   5.883 -0.9042  0.1667 -2.2171
 4371SOL     OW14553   2.976   0.485   2.787  0.6304 -0.2177 -0.0064
 4371SOL    HW114554   2.886   0.454   2.775  0.1658  0.6973  1.0085
 4371SOL    HW214555   3.030   0.419   2.742 -0.4578 -1.4147  0.3912
 4372SOL     OW14556   2.576   0.889  10.791 -0.1708 -0.3706  0.0591
 4372SOL    HW114557   2.631   0.941  10.850  0.0597 -0.4524 -0.0819
 4372SOL    HW214558   2.636   0.861  10.721 -0.8618  1.4163 -1.3144
 4373SOL     OW14559   1.614   7.430   2.261 -0.0088 -0.4101 -0.3743
 4373SOL    HW114560   1.601   7.412   2.354  0.4974  0.0141 -0.2179
 4373SOL    HW214561   1.709   7.442   2.252 -0.0236 -0.7263 -0.9940
 4374SOL     OW14562   1.428   0.685   9.590  0.2013 -0.2793 -0.8274
 4374SOL    HW114563   1.475   0.632   9.526 -0.9630 -1.9215 -0.3716
 4374SOL    HW214564   1.475   0.672   9.672 -0.8103 -1.6796 -0.4376
 4375SOL     OW14565   2.047   1.846   4.639 -0.1431 -0.3183 -0.6160
 4375SOL    HW114566   1.959   1.881   4.655  0.2323  0.2459  0.2852
 4375SOL    HW214567   2.098   1.921   4.609  0.2358 -0.4672 -0.3450
 4376SOL     OW14568   4.484   7.830   6.192  0.0303  0.2250 -0.0588
 4376SOL    HW114569   4.409   7.805   6.246 -0.0026 -0.8178 -0.5787
 4376SOL    HW214570   4.548   7.864   6.255  0.1359 -1.3029  0.7136
 4377SOL     OW14571   4.004   0.806   6.900 -0.0752  0.0901 -0.2053
 4377SOL    HW114572   3.972   0.716   6.894  0.6274 -0.1003 -1.3417
 4377SOL    HW214573   4.041   0.825   6.814  0.3160  1.2735  0.1942
 4378SOL     OW14574   7.713   0.249   4.203 -0.0394  0.2221 -0.1295
 4378SOL    HW114575   7.713   0.340   4.230  0.1510  0.7101 -1.6655
 4378SOL    HW214576   7.699   0.252   4.108  0.2091 -1.3265 -0.2472
 4379SOL     OW14577   5.060   0.748   9.679 -0.2361  0.0880 -0.2485
 4379SOL    HW114578   5.099   0.677   9.731 -1.4145 -0.8211 -0.5594
 4379SOL    HW214579   5.094   0.734   9.591 -1.7176 -1.1087 -0.6654
 4380SOL     OW14580   6.912   1.254   5.825 -0.1733  0.2535 -0.8666
 4380SOL    HW114581   6.853   1.179   5.838  0.3282 -0.0757 -0.4201
 4380SOL    HW214582   6.940   1.247   5.734  1.5193 -1.3647 -0.3060
 4381SOL     OW14583   4.098   2.086   8.770 -0.5708 -0.2662 -0.3331
 4381SOL    HW114584   4.096   2.025   8.844  0.1210  1.5108  1.2409
 4381SOL    HW214585   4.186   2.077   8.734 -0.6821 -0.6433 -0.5177
 4382SOL     OW14586   7.413   1.490   5.997 -0.3858  0.3470 -0.2984
 4382SOL    HW114587   7.421   1.583   5.976 -0.1543  0.0343 -1.7338
 4382SOL    HW214588   7.396   1.487   6.091 -3.3626  1.9917 -0.6658
 4383SOL     OW14589   1.029   7.522   5.600 -0.4454 -0.0451 -0.3113
 4383SOL    HW114590   0.989   7.525   5.513  2.1440 -0.8123 -1.6356
 4383SOL    HW214591   1.104   7.463   5.589 -1.6834 -2.6329  3.2075
 4384SOL     OW14592   6.772   1.579  10.849  0.2183 -0.0797  0.0933
 4384SOL    HW114593   6.818   1.663  10.850  0.9037 -0.4448  0.1441
 4384SOL    HW214594   6.680   1.602  10.836  0.6392  0.5617 -2.0779
 4385SOL     OW14595   7.424   2.525   4.785  0.1050  0.3496  0.0188
 4385SOL    HW114596   7.383   2.456   4.838 -2.3403  1.9192  0.3006
 4385SOL    HW214597   7.472   2.477   4.718 -0.3876 -1.6367  0.9947
 4386SOL     OW14598   1.956   3.344   8.887 -0.1949 -0.3347 -0.3750
 4386SOL    HW114599   2.021   3.377   8.824  0.1267  0.0604  0.1602
 4386SOL    HW214600   1.876   3.335   8.836 -0.2068  0.9766 -0.6079
 4387SOL     OW14601   7.931   5.537   0.853  0.3557  0.3885  0.5212
 4387SOL    HW114602   7.884   5.476   0.796 -0.2140  1.7870 -0.5657
 4387SOL    HW214603   8.021   5.506   0.851  0.3314  0.3250 -1.0723
 4388SOL     OW14604   0.700   0.416   1.294  0.2029  0.1778  0.3904
 4388SOL    HW114605   0.730   0.422   1.203  1.6435  0.4300  0.8719
 4388SOL    HW214606   0.618   0.467   1.295 -0.6130 -1.0153 -1.0635
 4389SOL     OW14607   2.167   0.980   6.681  0.6291  0.0243  0.2186
 4389SOL    HW114608   2.171   0.888   6.706  0.7670  0.1447  0.6537
 4389SOL    HW214609   2.183   1.028   6.763 -1.7606  0.4734  0.4786
 4390SOL     OW14610   1.831   7.869   3.995 -0.5222  0.2528  0.0610
 4390SOL    HW114611   1.891   7.943   4.005 -0.6284  0.3883 -0.2945
 4390SOL    HW214612   1.858   7.826   3.914 -0.3176 -0.2364  0.3807
 4391SOL     OW14613   7.938   0.298  10.391  0.0872 -0.9485  0.0613
 4391SOL    HW114614   7.850   0.263  10.408  0.8611 -2.9394  0.2703
 4391SOL    HW214615   7.927   0.353  10.314 -1.4623 -0.5768  0.4941
 4392SOL     OW14616   6.196   0.280  10.709  0.3520 -0.5504 -0.5663
 4392SOL    HW114617   6.136   0.237  10.648  0.7451 -1.7285 -0.1531
 4392SOL    HW214618   6.197   0.372  10.681  0.3881 -1.0192 -2.2099
 4393SOL     OW14619   2.758   6.283   3.315  0.1112 -0.3246  0.1769
 4393SOL    HW114620   2.832   6.264   3.257  1.1663  0.9342  1.0754
 4393SOL    HW214621   2.773   6.227   3.391 -0.3792 -0.7474 -0.0296
 4394SOL     OW14622   1.931   2.879   8.338 -0.1941  0.0590  0.4726
 4394SOL    HW114623   1.919   2.969   8.365  2.9503  0.2843  1.5749
 4394SOL    HW214624   1.854   2.833   8.370 -1.8067  2.2838 -0.0165
 4395SOL     OW14625   0.230   3.464   3.653  0.3649  0.2165  0.4792
 4395SOL    HW114626   0.192   3.430   3.572 -0.4467 -0.4214  1.1052
 4395SOL    HW214627   0.194   3.552   3.662 -1.6480 -0.6414  1.4496
 4396SOL     OW14628   3.605   4.410   1.485 -0.5992  0.8019  0.0050
 4396SOL    HW114629   3.519   4.451   1.489 -0.3967  1.1380  1.2852
 4396SOL    HW214630   3.667   4.483   1.492 -0.1965  0.5528 -0.7715
 4397SOL     OW14631   3.328   0.137  12.348  0.0491  0.1363 -0.2639
 4397SOL    HW114632   3.410   0.123  12.397  1.0872 -1.9956 -2.3982
 4397SOL    HW214633   3.282   0.053  12.356 -0.2472  0.1102 -2.0114
 4398SOL     OW14634   1.058   0.335  10.083 -0.2236 -0.0769 -0.3377
 4398SOL    HW114635   1.033   0.323  10.175  2.1428  0.2031  0.4002
 4398SOL    HW214636   1.053   0.248  10.045  0.4637 -0.5160  0.5407
 4399SOL     OW14637   5.158   2.058   2.774  0.6765  0.2377 -0.4755
 4399SOL    HW114638   5.084   2.041   2.715  0.0207  1.0335  0.1070
 4399SOL    HW214639   5.142   2.002   2.850  0.5474  0.5805 -0.2483
 4400SOL     OW14640   6.917   4.420   4.509 -0.1044 -0.2474 -0.1633
 4400SOL    HW114641   6.984   4.402   4.443  0.0546 -0.6147  0.0964
 4400SOL    HW214642   6.868   4.494   4.473 -0.4220 -0.8337 -0.9979
 4401SOL     OW14643   6.694   0.753   9.757 -0.1133 -0.4252 -0.0830
 4401SOL    HW114644   6.679   0.784   9.847  1.7247  1.0336 -0.2017
 4401SOL    HW214645   6.702   0.658   9.765 -4.3197 -0.9200  0.5757
 4402SOL     OW14646   1.676   3.271   4.460  0.0127 -0.1023  0.2515
 4402SOL    HW114647   1.696   3.206   4.528 -0.3333 -1.8912 -1.2502
 4402SOL    HW214648   1.583   3.260   4.443  0.2549 -0.3117 -1.0770
 4403SOL     OW14649   0.535   3.517   0.689  0.3332  0.0640 -0.5775
 4403SOL    HW114650   0.567   3.481   0.606 -0.4975 -0.3413 -0.7363
 4403SOL    HW214651   0.613   3.529   0.742  0.9280  0.7589 -1.5826
 4404SOL     OW14652   2.124   7.832   5.669 -0.5161  0.0392 -0.4329
 4404SOL    HW114653   2.034   7.851   5.640 -0.2317 -0.6037 -1.8491
 4404SOL    HW214654   2.155   7.765   5.607  0.7478 -0.1625  0.3852
 4405SOL     OW14655   2.748   2.654   9.623 -0.3326  0.2396 -0.5041
 4405SOL    HW114656   2.707   2.668   9.708 -0.0868 -0.4699 -0.2671
 4405SOL    HW214657   2.675   2.647   9.561 -0.5059  2.7462 -0.6983
 4406SOL     OW14658   4.195   4.952   7.552  0.1605 -0.2618 -0.0994
 4406SOL    HW114659   4.114   5.001   7.566  0.1709 -0.5868  1.2670
 4406SOL    HW214660   4.166   4.863   7.531  0.1452 -0.3598  0.3164
 4407SOL     OW14661   0.567   5.896   6.601 -0.1215  0.0829 -0.4454
 4407SOL    HW114662   0.568   5.914   6.695 -0.6509  3.0055 -0.8980
 4407SOL    HW214663   0.649   5.934   6.568  0.4596 -1.6467 -1.0988
 4408SOL     OW14664   5.255   2.900   1.890  0.3158 -0.9290  0.4466
 4408SOL    HW114665   5.297   2.986   1.885  0.2119 -0.8943  0.0891
 4408SOL    HW214666   5.229   2.891   1.981  1.5768 -1.1817  0.8101
 4409SOL     OW14667   4.080   7.453   1.110  0.1414 -0.1271  0.1908
 4409SOL    HW114668   4.166   7.418   1.133  1.0520  1.3060 -0.8673
 4409SOL    HW214669   4.094   7.547   1.099 -1.3640  0.0159 -0.9118
 4410SOL     OW14670   1.939   6.616   6.387  0.2417 -0.0238  0.2990
 4410SOL    HW114671   1.907   6.641   6.301 -0.6123 -1.8875  0.0415
 4410SOL    HW214672   1.879   6.659   6.448 -1.5227 -1.7391 -0.1394
 4411SOL     OW14673   4.114   3.440   5.352  0.3183  0.1415 -0.7527
 4411SOL    HW114674   4.068   3.357   5.356 -0.4923  0.5655 -0.9953
 4411SOL    HW214675   4.161   3.446   5.435 -1.1145  0.2811  0.0839
 4412SOL     OW14676   2.700   1.562   5.719  0.1809 -0.4140 -0.5433
 4412SOL    HW114677   2.653   1.634   5.762  0.7028 -1.0160  1.1174
 4412SOL    HW214678   2.660   1.556   5.632 -0.0290  1.7251 -0.6602
 4413SOL     OW14679   7.054   5.711  11.779 -0.6805  0.4643 -0.0594
 4413SOL    HW114680   7.084   5.675  11.695 -1.0319  0.2610 -0.0993
 4413SOL    HW214681   7.101   5.794  11.788 -0.4795  0.3833 -0.3545
 4414SOL     OW14682   7.843   6.831   1.016 -0.1427 -0.2145 -0.5639
 4414SOL    HW114683   7.775   6.778   0.975  1.7657 -0.5198 -3.6357
 4414SOL    HW214684   7.832   6.918   0.978  0.8512 -0.1403 -0.7077
 4415SOL     OW14685   2.064   5.735   4.510 -0.0577 -0.4501 -1.0400
 4415SOL    HW114686   2.045   5.763   4.599  0.9297  0.6868 -1.1691
 4415SOL    HW214687   2.157   5.754   4.498 -0.5241  0.9107 -2.8311
 4416SOL     OW14688   5.004   3.115   7.689  0.1427  0.4561  0.3628
 4416SOL    HW114689   4.929   3.102   7.747 -2.5949 -0.4454 -3.0759
 4416SOL    HW214690   4.992   3.204   7.654  1.2562  0.6651  0.4686
 4417SOL     OW14691   6.853   6.200   0.402 -0.2684  0.0702 -0.0893
 4417SOL    HW114692   6.946   6.178   0.406 -0.1241  0.6238 -0.3656
 4417SOL    HW214693   6.848   6.275   0.343 -0.6208  1.5387  1.6986
 4418SOL     OW14694   3.329   4.230   2.094 -0.6113 -0.2245 -0.0666
 4418SOL    HW114695   3.236   4.253   2.086 -0.4114  0.8926  0.6904
 4418SOL    HW214696   3.375   4.298   2.044 -0.2006 -0.9656 -0.7312
 4419SOL     OW14697   6.640   1.055  11.179 -0.7164  0.1021  0.1977
 4419SOL    HW114698   6.633   0.987  11.111 -1.2505  1.8337 -1.5714
 4419SOL    HW214699   6.553   1.057  11.219 -0.3276 -1.0997  1.1669
 4420SOL     OW14700   3.714   7.639   3.070  0.6968 -0.1575 -0.1005
 4420SOL    HW114701   3.782   7.698   3.039  1.0891 -0.9596 -0.8124
 4420SOL    HW214702   3.678   7.682   3.147  0.8324  1.1029 -0.7167
 4421SOL     OW14703   4.058   1.900   1.317  0.2028  0.0262  0.3422
 4421SOL    HW114704   4.122   1.971   1.311  0.5743 -0.3116  0.3295
 4421SOL    HW214705   4.110   1.821   1.327 -0.1439 -0.4262 -1.0943
 4422SOL     OW14706   0.892   0.428   2.485 -0.3618  0.5958  0.7182
 4422SOL    HW114707   0.938   0.385   2.413 -2.0918  1.1775 -0.7974
 4422SOL    HW214708   0.919   0.520   2.479 -2.3336  1.1536 -0.8150
 4423SOL     OW14709   5.833   6.429   7.399 -0.2933 -0.3709 -0.5590
 4423SOL    HW114710   5.866   6.432   7.310 -1.5839  1.6396 -1.0367
 4423SOL    HW214711   5.864   6.510   7.439 -0.9625 -0.5354  0.3349
 4424SOL     OW14712   1.125   4.933   9.650 -0.2183 -0.6055 -0.4416
 4424SOL    HW114713   1.115   5.005   9.588  0.0742 -0.5951 -0.4771
 4424SOL    HW214714   1.036   4.900   9.664 -0.6023  0.8800  0.9046
 4425SOL     OW14715   0.251   0.053   0.840 -0.1597 -0.3975  0.1422
 4425SOL    HW114716   0.255  -0.040   0.862 -0.6070 -0.5082 -0.2264
 4425SOL    HW214717   0.158   0.075   0.844 -0.0831 -0.0290 -0.0250
 4426SOL     OW14718   2.803   6.075  10.593  0.6162  0.1766 -0.0885
 4426SOL    HW114719   2.799   6.074  10.498  1.3632 -1.8601 -0.1489
 4426SOL    HW214720   2.896   6.084  10.614  0.5532 -0.2920  0.4216
 4427SOL     OW14721   1.962   5.518   4.748  0.1007  0.4990  0.1530
 4427SOL    HW114722   2.024   5.485   4.813  0.0880  1.3549  0.6183
 4427SOL    HW214723   1.933   5.602   4.784 -2.2094 -0.3770  0.5560
 4428SOL     OW14724   0.191   3.613   0.351  0.1392  0.0459  0.2120
 4428SOL    HW114725   0.168   3.600   0.443 -2.1361  0.7107 -0.1960
 4428SOL    HW214726   0.278   3.574   0.343 -0.6811 -2.4682  2.0302
 4429SOL     OW14727   3.286   6.807   9.961 -0.4465  0.3174 -0.2810
 4429SOL    HW114728   3.304   6.883  10.016 -0.6034  0.1732 -0.0329
 4429SOL    HW214729   3.343   6.820   9.884 -1.8432  1.6694 -1.1440
 4430SOL     OW14730   2.365   2.930   5.475 -0.1656 -0.0449 -0.6043
 4430SOL    HW114731   2.288   2.977   5.508 -0.5915 -0.5249 -0.8992
 4430SOL    HW214732   2.439   2.973   5.518 -0.5191  1.0811 -1.0795
 4431SOL     OW14733   1.007   4.531   4.344  0.3442 -0.3764 -0.3250
 4431SOL    HW114734   1.012   4.569   4.256 -0.4666  0.7376  0.0852
 4431SOL    HW214735   1.094   4.492   4.358  0.4979 -0.5412 -1.5944
 4432SOL     OW14736   0.234   0.902  11.519 -0.1085 -0.3827  0.2113
 4432SOL    HW114737   0.238   0.990  11.482 -0.6014  0.6006  2.3456
 4432SOL    HW214738   0.316   0.892  11.567  0.3753 -1.4978 -0.7996
 4433SOL     OW14739   6.205   2.283   1.364  0.6401 -0.0665  0.1376
 4433SOL    HW114740   6.187   2.339   1.288 -0.4614 -0.2686  0.2391
 4433SOL    HW214741   6.195   2.193   1.330  0.3358 -0.1600  0.4768
 4434SOL     OW14742   5.024   3.487   4.133 -0.5169  0.2149  0.1190
 4434SOL    HW114743   4.955   3.546   4.162 -1.2912  0.2310 -1.6151
 4434SOL    HW214744   4.989   3.447   4.053  0.4244 -1.7687  0.6327
 4435SOL     OW14745   4.772   2.475   8.241  0.1984 -0.0602  0.0057
 4435SOL    HW114746   4.861   2.447   8.218 -0.2942 -3.0478  1.3141
 4435SOL    HW214747   4.784   2.539   8.311  1.3254  1.9228 -1.8609
 4436SOL     OW14748   7.570   5.428   3.665 -0.1505 -0.1932 -0.9985
 4436SOL    HW114749   7.621   5.489   3.718 -0.8430  0.0406 -0.5837
 4436SOL    HW214750   7.502   5.482   3.626 -2.5770 -1.0839  1.6421
 4437SOL     OW14751   2.169   4.463   3.749 -0.1285 -0.1309  0.1099
 4437SOL    HW114752   2.150   4.530   3.815  0.0031  0.4053 -0.3880
 4437SOL    HW214753   2.083   4.431   3.721 -0.1940 -0.0987  0.2785
 4438SOL     OW14754   5.480   1.023   1.084 -0.6483  0.8472  0.3895
 4438SOL    HW114755   5.544   1.083   1.046  0.4941  0.2191  1.2105
 4438SOL    HW214756   5.530   0.943   1.099 -1.6208  0.3631  1.1428
 4439SOL     OW14757   0.043   6.942   9.245  0.1777  0.1581 -0.2007
 4439SOL    HW114758   0.032   6.852   9.274 -0.4843 -0.2725 -1.6792
 4439SOL    HW214759   0.138   6.952   9.231  0.2464 -0.3310 -0.0865
 4440SOL     OW14760   6.381   6.661  10.260 -0.2973  0.1500  0.2958
 4440SOL    HW114761   6.432   6.615  10.194 -1.8175 -0.7654 -0.3032
 4440SOL    HW214762   6.376   6.752  10.229 -0.3259 -0.0999 -0.4488
 4441SOL     OW14763   2.327   0.862   9.259  0.4507  0.4847 -0.2545
 4441SOL    HW114764   2.266   0.881   9.331  0.5504 -0.0014 -0.0402
 4441SOL    HW214765   2.352   0.949   9.226 -0.1036  0.6994 -0.1332
 4442SOL     OW14766   5.970   6.221  10.061 -0.4783  0.4998 -0.1843
 4442SOL    HW114767   5.905   6.197  10.127 -0.5111  0.3496 -0.2708
 4442SOL    HW214768   6.040   6.157  10.071 -1.6418 -1.1504 -2.0224
 4443SOL     OW14769   4.990   2.666   5.399 -0.2391 -0.0280  0.0487
 4443SOL    HW114770   4.970   2.608   5.325  1.2822  1.5140 -1.6607
 4443SOL    HW214771   4.960   2.752   5.371  1.4164  0.8049  0.7271
 4444SOL     OW14772   7.034   7.853   2.200  1.0379 -0.1708  0.0184
 4444SOL    HW114773   7.119   7.896   2.212  1.0529  0.1884 -1.2380
 4444SOL    HW214774   7.034   7.782   2.264  2.1319  0.0560  0.2922
 4445SOL     OW14775   0.482   4.465  12.088  0.3275  0.1928  0.1606
 4445SOL    HW114776   0.470   4.462  11.993 -1.5963  1.5970  0.2898
 4445SOL    HW214777   0.426   4.396  12.121  1.6550 -0.8690  0.2816
 4446SOL     OW14778   6.478   4.514  10.425 -0.3575  0.4453  0.0629
 4446SOL    HW114779   6.568   4.546  10.431 -0.8668  1.7436  1.4162
 4446SOL    HW214780   6.486   4.419  10.437  0.8805  0.4418 -0.6005
 4447SOL     OW14781   0.842   1.028   3.692  0.3082  0.2314 -0.3548
 4447SOL    HW114782   0.792   1.051   3.614 -0.1556  1.4007  0.2699
 4447SOL    HW214783   0.778   0.984   3.750  0.2324  0.8475  0.0381
 4448SOL     OW14784   7.423   7.789   2.408  0.0532  0.0492 -0.1887
 4448SOL    HW114785   7.418   7.733   2.331 -4.3594  1.6032 -1.3155
 4448SOL    HW214786   7.404   7.731   2.481 -0.4821 -0.6086 -0.8338
 4449SOL     OW14787   0.441   5.406   7.456  1.2686 -0.2039  0.1597
 4449SOL    HW114788   0.392   5.324   7.450 -0.5207  0.8948 -0.9356
 4449SOL    HW214789   0.387   5.463   7.509  2.2848  0.4408  0.5361
 4450SOL     OW14790   4.419   2.954   3.102 -0.1177  0.1559 -0.0287
 4450SOL    HW114791   4.398   3.000   3.183  1.5164  0.8759  0.0277
 4450SOL    HW214792   4.341   2.903   3.082 -1.9037  2.6560  0.1011
 4451SOL     OW14793   7.801   4.131   0.167  0.0743  0.1063  0.2685
 4451SOL    HW114794   7.867   4.127   0.097  0.8915 -0.3821  1.0509
 4451SOL    HW214795   7.788   4.224   0.182  3.5011  0.3968  2.7249
 4452SOL     OW14796   5.193   2.869   4.658 -0.0086  0.3458  0.0405
 4452SOL    HW114797   5.186   2.949   4.711 -0.0344 -0.6768  1.6403
 4452SOL    HW214798   5.121   2.814   4.689  1.1853 -1.0822  0.3639
 4453SOL     OW14799   0.407   6.362   6.476 -0.1582  0.4202  0.0952
 4453SOL    HW114800   0.379   6.272   6.463 -0.8395  0.6933 -0.4286
 4453SOL    HW214801   0.449   6.363   6.562  1.3904 -0.7402 -0.6160
 4454SOL     OW14802   4.774   6.152   5.403  0.2425  0.1915 -0.5773
 4454SOL    HW114803   4.824   6.165   5.322 -0.8893 -0.3434 -1.3735
 4454SOL    HW214804   4.805   6.068   5.437  1.2500  0.7627 -0.0517
 4455SOL     OW14805   5.696   0.742   8.420  0.6406  0.4928 -0.3587
 4455SOL    HW114806   5.697   0.829   8.461 -0.1587  0.6446 -0.6467
 4455SOL    HW214807   5.621   0.698   8.460  2.3947 -0.9616  1.5562
 4456SOL     OW14808   2.580   6.058   0.264 -0.2720  0.5644  0.2205
 4456SOL    HW114809   2.555   5.968   0.284  1.2335  0.1553  0.3502
 4456SOL    HW214810   2.539   6.076   0.179 -0.8107 -0.1358  0.3280
 4457SOL     OW14811   5.647   6.803   1.621  0.0023 -0.3142  0.4025
 4457SOL    HW114812   5.564   6.788   1.666 -0.0537  0.7841  0.6968
 4457SOL    HW214813   5.629   6.878   1.563  0.4227 -0.9064 -0.5159
 4458SOL     OW14814   2.054   2.843   8.704  0.4031 -0.0908  0.1902
 4458SOL    HW114815   1.973   2.895   8.699  0.1713 -0.4529  0.1463
 4458SOL    HW214816   2.029   2.765   8.754  0.2633 -1.0432 -1.2873
 4459SOL     OW14817   2.258   7.834   6.555  0.0075 -0.1721  0.0636
 4459SOL    HW114818   2.273   7.790   6.638  1.5601 -0.6514 -0.4322
 4459SOL    HW214819   2.252   7.763   6.490  2.0052  0.2349 -0.6609
 4460SOL     OW14820   1.774   5.898   4.147  0.4544  0.6753 -0.4923
 4460SOL    HW114821   1.802   5.989   4.141 -0.0125  0.9076  0.6638
 4460SOL    HW214822   1.767   5.881   4.241  0.3861 -0.5067 -0.6991
 4461SOL     OW14823   0.176   1.784   2.112 -0.1723  0.0923  0.3971
 4461SOL    HW114824   0.193   1.857   2.172 -2.0428 -0.3578  1.5695
 4461SOL    HW214825   0.109   1.817   2.052 -0.7244 -0.5101  0.6706
 4462SOL     OW14826   1.002   1.038   8.817 -0.1194  0.1652  0.2704
 4462SOL    HW114827   0.975   1.104   8.754  1.2991  1.4028  0.8940
 4462SOL    HW214828   1.031   1.088   8.894  0.2280 -1.2084  1.0761
 4463SOL     OW14829   6.010   2.863   3.524  0.6074 -0.0092 -0.2558
 4463SOL    HW114830   5.921   2.831   3.539  1.0693 -1.0733  0.3272
 4463SOL    HW214831   6.044   2.808   3.454  0.1032  1.8107 -2.0129
 4464SOL     OW14832   5.490   1.032  10.689 -0.5502  0.0608 -0.2113
 4464SOL    HW114833   5.425   1.076  10.633 -0.2578  1.6845  0.6764
 4464SOL    HW214834   5.492   1.084  10.769 -0.3213 -1.7204  1.0009
 4465SOL     OW14835   1.719   1.117   4.126  0.1359  0.3880 -0.5572
 4465SOL    HW114836   1.731   1.134   4.032  3.0609 -0.0943 -0.3747
 4465SOL    HW214837   1.737   1.201   4.168 -0.3286  0.3949 -0.3663
 4466SOL     OW14838   0.040   6.041   0.720  0.4221 -0.3926 -0.5049
 4466SOL    HW114839   0.119   6.071   0.676 -0.2949  0.1495 -1.4519
 4466SOL    HW214840   0.027   6.103   0.792  1.0246 -0.6818 -0.1316
 4467SOL     OW14841   6.033   6.448  10.612 -0.9565 -0.6329 -0.0384
 4467SOL    HW114842   5.974   6.408  10.675 -1.0203  1.2523  1.1896
 4467SOL    HW214843   6.011   6.406  10.529 -2.1480 -1.8833  0.8540
 4468SOL     OW14844   1.205   2.858  11.855 -0.2835  0.4591 -0.4743
 4468SOL    HW114845   1.118   2.896  11.867 -0.1338  0.2082  1.8329
 4468SOL    HW214846   1.254   2.884  11.933  1.6389  0.3652 -1.5896
 4469SOL     OW14847   5.229   6.158   3.362  0.1283 -0.1244 -0.0411
 4469SOL    HW114848   5.187   6.185   3.280  0.5665  1.3004  0.1767
 4469SOL    HW214849   5.159   6.165   3.428  0.5196  1.8850  0.2526
 4470SOL     OW14850   3.982   2.564   8.117 -0.3074 -0.1492  0.1770
 4470SOL    HW114851   3.932   2.624   8.172  1.7182  0.3077  1.6547
 4470SOL    HW214852   4.043   2.621   8.070 -0.7524 -0.7387 -1.1497
 4471SOL     OW14853   6.937   0.668   0.826 -0.6244  0.0364  0.3856
 4471SOL    HW114854   6.979   0.690   0.909 -0.6514 -0.4695  0.5378
 4471SOL    HW214855   6.849   0.705   0.832 -0.0441  1.5725 -0.1500
 4472SOL     OW14856   2.448   4.518   4.691 -0.3949  0.5820  0.4164
 4472SOL    HW114857   2.542   4.518   4.672 -0.6358 -1.1619 -0.9709
 4472SOL    HW214858   2.414   4.595   4.646  0.0299 -0.1061 -1.1444
 4473SOL     OW14859   4.832   4.076   8.099  0.1190  0.4197 -0.9942
 4473SOL    HW114860   4.852   4.169   8.099  1.1136  0.2224 -0.2430
 4473SOL    HW214861   4.912   4.034   8.131 -1.1580 -0.5192  1.1301
 4474SOL     OW14862   2.384   5.622   0.350 -0.7003 -0.4402 -0.1485
 4474SOL    HW114863   2.332   5.554   0.392  0.6721 -2.1587 -1.0702
 4474SOL    HW214864   2.368   5.701   0.402 -4.5790 -0.6715 -0.6946
 4475SOL     OW14865   2.053   7.849   8.139 -0.2276 -0.6649 -0.2251
 4475SOL    HW114866   2.039   7.853   8.044 -1.1948 -0.5380 -0.0795
 4475SOL    HW214867   2.136   7.896   8.152 -0.1479 -0.5724 -0.9884
 4476SOL     OW14868   4.514   7.244   1.409  0.6553 -0.4722 -0.0584
 4476SOL    HW114869   4.480   7.243   1.319 -0.0432  0.0420  0.1879
 4476SOL    HW214870   4.486   7.161   1.446  0.3527 -0.3921 -0.1064
 4477SOL     OW14871   5.546   7.827   6.017 -0.2124  0.5539 -0.2097
 4477SOL    HW114872   5.591   7.803   5.935  2.3842 -0.7021  1.4381
 4477SOL    HW214873   5.490   7.752   6.035 -1.8744  1.4301 -1.4614
 4478SOL     OW14874   6.742   6.127   1.910 -0.3392  0.0189  0.1979
 4478SOL    HW114875   6.816   6.171   1.951  1.6459 -3.7933  1.2358
 4478SOL    HW214876   6.686   6.101   1.984 -0.9071 -0.1311 -0.2754
 4479SOL     OW14877   2.064   3.392  11.221  0.0351 -0.2644 -0.0112
 4479SOL    HW114878   2.036   3.472  11.266  1.0850  0.2546 -0.2347
 4479SOL    HW214879   2.053   3.323  11.286  0.1441  0.2467  0.5628
 4480SOL     OW14880   4.453   7.326   4.212 -0.2356  0.5491  0.7047
 4480SOL    HW114881   4.366   7.288   4.219  0.1424  0.0003  4.3302
 4480SOL    HW214882   4.457   7.361   4.123 -3.2365 -1.5079 -0.3936
 4481SOL     OW14883   1.627   5.093  10.137  0.5555  0.2016 -0.2525
 4481SOL    HW114884   1.634   5.001  10.112  0.4088  0.1225  0.0002
 4481SOL    HW214885   1.546   5.099  10.187 -0.5731  0.8673 -2.0568
 4482SOL     OW14886   1.422   3.911   6.525  0.4585 -0.4761 -0.0768
 4482SOL    HW114887   1.386   3.983   6.475 -0.7041 -0.8038  0.2669
 4482SOL    HW214888   1.346   3.858   6.550  1.3088 -2.1463 -0.8140
 4483SOL     OW14889   2.136   1.800   2.732  0.1812 -0.0892  0.5202
 4483SOL    HW114890   2.061   1.824   2.787  0.1336 -0.1184  0.4677
 4483SOL    HW214891   2.177   1.727   2.779 -0.8217 -1.2194 -0.3192
 4484SOL     OW14892   7.799   4.955  10.906 -0.2951 -0.3914  0.5579
 4484SOL    HW114893   7.727   4.968  10.967 -0.1863 -1.5273  0.9540
 4484SOL    HW214894   7.767   4.889  10.844 -0.8079  1.4910 -1.3081
 4485SOL     OW14895   1.880   0.121   9.733  0.4173  0.4066 -0.7008
 4485SOL    HW114896   1.974   0.101   9.734  0.7655  1.7047  1.9350
 4485SOL    HW214897   1.849   0.094   9.819 -1.3415  1.2661 -1.0263
 4486SOL     OW14898   3.618   3.308  11.962  0.6849 -0.0915  0.1924
 4486SOL    HW114899   3.574   3.236  11.918  1.2022 -0.5627  0.4368
 4486SOL    HW214900   3.559   3.382  11.952  0.3952 -0.4120 -0.5269
 4487SOL     OW14901   0.829   2.820   6.547  0.2320  0.0950 -0.1282
 4487SOL    HW114902   0.816   2.728   6.572 -0.4584  0.1944 -0.0865
 4487SOL    HW214903   0.766   2.835   6.477 -1.7881  1.3005  1.7929
 4488SOL     OW14904   6.922   2.285   7.504 -0.4893  0.3217  0.3449
 4488SOL    HW114905   6.848   2.336   7.472 -0.3779  0.1821 -0.1384
 4488SOL    HW214906   6.931   2.312   7.596 -1.6039 -0.1983  0.6291
 4489SOL     OW14907   1.487   1.660  10.894  0.1999 -0.0184 -0.4629
 4489SOL    HW114908   1.408   1.715  10.901  1.2167  1.3340  1.2233
 4489SOL    HW214909   1.516   1.672  10.803 -1.2603 -0.1790 -0.9817
 4490SOL     OW14910   5.371   6.513   1.606 -0.2039  0.2756 -0.2840
 4490SOL    HW114911   5.312   6.552   1.541 -1.0693 -1.3731 -0.5587
 4490SOL    HW214912   5.338   6.424   1.618  1.5212 -0.3112  0.4903
 4491SOL     OW14913   2.881   6.799   8.523 -0.4161 -0.7445 -0.1738
 4491SOL    HW114914   2.903   6.892   8.535  1.5435 -1.0761 -0.9020
 4491SOL    HW214915   2.792   6.800   8.489 -0.0483  0.9390 -1.1943
 4492SOL     OW14916   7.298   0.604   1.371 -0.2022 -0.4495  0.3401
 4492SOL    HW114917   7.313   0.603   1.466 -0.8103  2.6916  0.5668
 4492SOL    HW214918   7.212   0.563   1.361  0.0016 -1.0982  1.0850
 4493SOL     OW14919   1.657   4.155  11.510 -0.2385 -0.4246  0.6335
 4493SOL    HW114920   1.645   4.220  11.579  0.5528  0.4265 -0.0074
 4493SOL    HW214921   1.574   4.156  11.462  0.6819  2.3694 -1.2051
 4494SOL     OW14922   0.657   2.206   5.466  0.6865  0.2110  0.3670
 4494SOL    HW114923   0.707   2.178   5.390  1.4668 -0.7240  1.1913
 4494SOL    HW214924   0.722   2.218   5.535 -0.1561 -0.5470  1.3257
 4495SOL     OW14925   4.769   5.406  11.012 -1.0137  0.3579 -0.3570
 4495SOL    HW114926   4.781   5.491  10.970 -0.8027  0.4386 -0.1375
 4495SOL    HW214927   4.770   5.425  11.106  0.8844 -0.1106 -0.2534
 4496SOL     OW14928   4.399   1.657  11.108 -0.4942 -0.4878  0.0094
 4496SOL    HW114929   4.460   1.730  11.094 -0.1479 -0.5275  1.1932
 4496SOL    HW214930   4.312   1.696  11.099 -0.3281  0.2534  1.3214
 4497SOL     OW14931   7.513   2.491   8.021  0.3452  0.3075 -0.5232
 4497SOL    HW114932   7.517   2.405   7.980 -0.4236  0.1587 -0.3176
 4497SOL    HW214933   7.509   2.473   8.115  1.0170  0.6013 -0.4350
 4498SOL     OW14934   3.631   5.152  10.391  0.2976  0.6036 -0.1452
 4498SOL    HW114935   3.570   5.225  10.405 -1.3603 -0.7314  0.0055
 4498SOL    HW214936   3.628   5.136  10.297 -0.8713 -0.4510  0.0348
 4499SOL     OW14937   7.615   3.484   9.537  0.0080  0.4955  0.0381
 4499SOL    HW114938   7.681   3.456   9.473 -0.4983  0.0650 -0.3112
 4499SOL    HW214939   7.587   3.570   9.506  0.3890  0.6684  0.1741
 4500SOL     OW14940   6.095   1.876   6.596 -0.6105 -0.1057 -0.2488
 4500SOL    HW114941   6.098   1.950   6.658 -0.7215  0.0332 -0.4078
 4500SOL    HW214942   6.023   1.821   6.628  0.1362 -0.6869  0.4753
 4501SOL     OW14943   0.244   2.202  11.517 -0.3391 -0.1856  0.3192
 4501SOL    HW114944   0.273   2.284  11.475 -0.3886 -0.3371 -0.0186
 4501SOL    HW214945   0.148   2.207  11.512 -0.4265  0.6447  2.0642
 4502SOL     OW14946   2.962   0.785   2.696  0.0877 -0.4824 -0.1005
 4502SOL    HW114947   3.033   0.739   2.650 -0.6929 -0.6473 -1.1706
 4502SOL    HW214948   2.929   0.721   2.759  0.2100 -0.7521 -0.3085
 4503SOL     OW14949   0.859   3.763   0.077 -0.6845 -0.2524  0.4255
 4503SOL    HW114950   0.861   3.837   0.017  3.6611 -0.5986 -0.1532
 4503SOL    HW214951   0.868   3.802   0.164 -0.4182  0.0092  0.2820
 4504SOL     OW14952   6.436   5.247   0.610  0.0181  1.1403  0.3053
 4504SOL    HW114953   6.346   5.229   0.640  0.2454  0.6089  0.7000
 4504SOL    HW214954   6.452   5.180   0.544  0.3989  0.7296  0.8065
 4505SOL     OW14955   7.899   1.064   3.191 -0.0182  0.2024 -0.1880
 4505SOL    HW114956   7.871   1.130   3.254 -2.3921 -1.7019  0.9428
 4505SOL    HW214957   7.977   1.024   3.230  0.9524  1.7350 -0.5006
 4506SOL     OW14958   6.946   5.914   8.647 -0.6896  0.2984  0.5332
 4506SOL    HW114959   6.863   5.957   8.628 -1.2424 -0.6135  0.7923
 4506SOL    HW214960   6.935   5.825   8.613  1.4213  1.0432 -2.5389
 4507SOL     OW14961   0.056   3.089   6.353 -0.0781  0.6435  0.8066
 4507SOL    HW114962   0.010   3.071   6.435  1.5906  1.5375  1.9962
 4507SOL    HW214963  -0.014   3.110   6.291 -1.4336 -0.8008  1.7516
 4508SOL     OW14964   2.632   1.328  10.167  0.1614 -0.9470  0.1280
 4508SOL    HW114965   2.673   1.332  10.080 -0.0109 -0.7076  0.0572
 4508SOL    HW214966   2.602   1.417  10.183 -1.2607 -1.3444 -0.2605
 4509SOL     OW14967   5.676   4.760   7.658  0.4358 -0.1629  0.0164
 4509SOL    HW114968   5.644   4.850   7.666 -0.7542 -0.6003  0.3845
 4509SOL    HW214969   5.708   4.754   7.568 -0.4698  0.3287 -0.3546
 4510SOL     OW14970   6.988   6.942   6.321  0.4318 -0.3090  0.3109
 4510SOL    HW114971   6.957   6.852   6.333 -0.2442 -0.0873  0.2822
 4510SOL    HW214972   6.960   6.965   6.233 -2.2370  0.9944  1.3833
 4511SOL     OW14973   7.041   2.479   6.988 -0.0383  0.6693  0.3915
 4511SOL    HW114974   7.121   2.526   7.012  2.2911 -2.0030 -1.4600
 4511SOL    HW214975   7.028   2.416   7.059  0.0904  0.4503  0.2217
 4512SOL     OW14976   1.006   5.140   0.785 -0.2423  0.3240 -0.2340
 4512SOL    HW114977   1.076   5.203   0.799 -0.4433  0.5713 -0.3445
 4512SOL    HW214978   1.045   5.056   0.810 -0.7387  0.7866  2.4854
 4513SOL     OW14979   6.995   4.983   5.629  0.3145  0.8025 -0.0541
 4513SOL    HW114980   7.071   5.040   5.626  0.1813  0.9531 -0.5714
 4513SOL    HW214981   6.921   5.042   5.646  0.0881  0.8769 -1.2372
 4514SOL     OW14982   7.628   0.635  10.799  0.7166 -0.1717  0.4288
 4514SOL    HW114983   7.609   0.607  10.710  2.4258 -1.4885  0.4329
 4514SOL    HW214984   7.543   0.661  10.835 -0.1979 -0.8704 -1.1474
 4515SOL     OW14985   2.457   4.003   3.365  0.3350  0.5240  0.2725
 4515SOL    HW114986   2.374   4.027   3.404  0.1589  0.4510 -0.0483
 4515SOL    HW214987   2.457   4.045   3.279 -0.7231 -1.8768 -1.0219
 4516SOL     OW14988   0.609   1.030   9.664  0.2439  0.0419 -0.0384
 4516SOL    HW114989   0.523   0.989   9.652 -0.4156  1.3473  0.0605
 4516SOL    HW214990   0.643   0.993   9.745  1.2369 -2.9234 -1.6820
 4517SOL     OW14991   2.635   5.783   0.368 -0.0644  0.9971 -0.0537
 4517SOL    HW114992   2.632   5.732   0.449 -0.5593 -0.0342 -0.6968
 4517SOL    HW214993   2.571   5.740   0.311 -0.4164  2.2924 -0.6557
 4518SOL     OW14994   2.074   5.543   2.926  0.0876  0.3456  0.0744
 4518SOL    HW114995   2.035   5.626   2.955 -1.9007  0.0030 -1.3788
 4518SOL    HW214996   2.029   5.476   2.977 -0.9283 -0.0322 -1.2796
 4519SOL     OW14997   1.115   4.690   5.905  0.0024 -0.4715  0.3040
 4519SOL    HW114998   1.166   4.737   5.971 -0.1407 -0.5371  0.4610
 4519SOL    HW214999   1.179   4.663   5.839 -0.1918  2.0317 -1.0559
 4520SOL     OW15000   1.913   4.398   8.596 -0.3788  0.1646 -0.0606
 4520SOL    HW115001   1.886   4.434   8.512  0.1761 -1.6001 -1.0487
 4520SOL    HW215002   1.835   4.403   8.651 -0.7739  1.2619 -0.6896
 4521SOL     OW15003   6.720   1.599   5.098 -0.3538 -0.1353 -0.0480
 4521SOL    HW115004   6.635   1.559   5.077  0.0290 -0.8946 -0.2047
 4521SOL    HW215005   6.706   1.693   5.088 -0.5678 -0.3711 -2.3274
 4522SOL     OW15006   1.680   0.233   1.971  0.5487 -0.0849  0.2254
 4522SOL    HW115007   1.709   0.158   2.024 -0.6036 -2.2552 -2.0327
 4522SOL    HW215008   1.604   0.267   2.019  0.4772 -0.9890  0.7974
 4523SOL     OW15009   6.019   3.323   1.904  0.3523  0.1125 -0.2922
 4523SOL    HW115010   5.983   3.400   1.947  1.4207  1.2403 -1.3416
 4523SOL    HW215011   5.969   3.250   1.940 -1.0137  1.3254  0.3702
 4524SOL     OW15012   0.918   3.096   8.486 -0.4565 -0.7417 -0.2033
 4524SOL    HW115013   0.955   3.092   8.574  1.1645  0.8419 -0.7444
 4524SOL    HW215014   0.943   3.012   8.446  1.4021 -0.2942 -0.0800
 4525SOL     OW15015   7.616   5.731   7.169 -0.7064  1.1286  0.8745
 4525SOL    HW115016   7.677   5.668   7.131 -0.2591  2.3534 -0.5384
 4525SOL    HW215017   7.551   5.677   7.215 -0.5689 -0.3904 -0.6110
 4526SOL     OW15018   2.653   7.324  11.434  0.1111  0.0700 -0.2862
 4526SOL    HW115019   2.718   7.271  11.388  0.2149 -1.0048  1.0201
 4526SOL    HW215020   2.627   7.391  11.371  0.6557 -0.9865 -1.6823
 4527SOL     OW15021   5.302   1.480   3.764  0.3971 -0.3772  0.0972
 4527SOL    HW115022   5.210   1.486   3.741  0.8363  0.9375 -1.4682
 4527SOL    HW215023   5.304   1.490   3.859 -1.0506 -0.4222  0.1522
 4528SOL     OW15024   7.439   0.184  10.744  0.0405 -0.0803  0.3283
 4528SOL    HW115025   7.523   0.196  10.788  0.8129  0.5214 -1.2364
 4528SOL    HW215026   7.455   0.210  10.653 -2.1965  1.4010  0.2667
 4529SOL     OW15027   0.866   4.798  10.270 -0.3255  0.3397 -0.5682
 4529SOL    HW115028   0.929   4.839  10.330  0.3222 -2.1726  0.5674
 4529SOL    HW215029   0.791   4.778  10.324  0.0164 -1.4058 -0.7039
 4530SOL     OW15030   0.578   6.462   1.516 -0.7656  0.2199 -0.0646
 4530SOL    HW115031   0.499   6.409   1.525 -0.2082 -0.7219 -0.5418
 4530SOL    HW215032   0.639   6.426   1.580 -0.8807  1.2802  0.6700
 4531SOL     OW15033   7.515   7.950   7.101  0.4579 -0.8441  0.2721
 4531SOL    HW115034   7.426   7.984   7.102  0.6716 -0.2501 -0.4236
 4531SOL    HW215035   7.571   8.027   7.106  0.9520 -1.2522  1.7197
 4532SOL     OW15036   7.335   5.090  11.862 -0.2803 -0.4931 -0.4918
 4532SOL    HW115037   7.291   5.138  11.932 -0.1422 -0.9374 -0.0996
 4532SOL    HW215038   7.338   5.153  11.789 -2.0771 -0.6341 -0.7309
 4533SOL     OW15039   1.919   1.546   7.143  0.5177  0.0658  0.3633
 4533SOL    HW115040   1.972   1.500   7.209  1.0364  0.4036  0.1839
 4533SOL    HW215041   1.968   1.538   7.062  1.5482  2.4645  0.6707
 4534SOL     OW15042   6.238   1.245   8.367  0.2463 -0.0267 -0.2269
 4534SOL    HW115043   6.240   1.187   8.443  0.3117 -1.2143 -1.1008
 4534SOL    HW215044   6.279   1.194   8.297  0.8311  1.3075 -0.8879
 4535SOL     OW15045   5.958   1.949   5.306  0.5194 -0.1450 -0.2184
 4535SOL    HW115046   5.969   1.945   5.211 -1.1562 -2.4349 -0.4096
 4535SOL    HW215047   5.885   2.009   5.319 -0.3010 -1.0357 -0.5491
 4536SOL     OW15048   4.991   6.051   1.884  0.5344 -0.2997  0.2527
 4536SOL    HW115049   5.080   6.080   1.861  0.4243 -0.2701 -0.1430
 4536SOL    HW215050   4.935   6.123   1.856  0.1016 -1.4505 -2.0939
 4537SOL     OW15051   0.405   6.564   7.091  0.1928  0.8624  0.6614
 4537SOL    HW115052   0.496   6.547   7.115  0.2447 -0.5984 -0.4199
 4537SOL    HW215053   0.362   6.478   7.097 -0.4941  1.0207 -1.3026
 4538SOL     OW15054   1.055   4.480  10.578 -0.2175 -0.4677 -0.5858
 4538SOL    HW115055   1.058   4.566  10.621  2.3223 -0.9298  0.3559
 4538SOL    HW215056   1.033   4.419  10.649  0.7801 -0.8709 -0.6018
 4539SOL     OW15057   3.238   5.256  10.897  0.3014  0.4172 -0.4539
 4539SOL    HW115058   3.327   5.287  10.911  0.0717  0.4889  0.9431
 4539SOL    HW215059   3.185   5.335  10.891 -0.0859  0.3804  1.7640
 4540SOL     OW15060   0.961   7.285   4.330  0.2839 -0.1793 -0.1112
 4540SOL    HW115061   0.936   7.373   4.356  0.9103 -0.0417  0.0293
 4540SOL    HW215062   0.923   7.273   4.243  0.1956  0.2270 -0.1280
 4541SOL     OW15063   6.859   2.518  11.906  1.0387  0.0729 -0.2675
 4541SOL    HW115064   6.894   2.468  11.833  0.8360  0.5432 -0.6883
 4541SOL    HW215065   6.833   2.452  11.970  1.8114 -0.3162 -0.3444
 4542SOL     OW15066   0.421   4.773   9.453 -0.0339  0.3080 -0.0931
 4542SOL    HW115067   0.428   4.858   9.409  1.5761 -0.8486 -2.2150
 4542SOL    HW215068   0.504   4.762   9.498 -0.4694  0.0977  0.6816
 4543SOL     OW15069   3.821   6.473   0.585 -0.1064 -0.4319  0.5826
 4543SOL    HW115070   3.740   6.468   0.636 -0.7160 -0.0668 -0.3061
 4543SOL    HW215071   3.881   6.414   0.629 -1.1349 -1.3607  0.7998
 4544SOL     OW15072   3.741   2.156   9.517  0.0839 -0.0339 -0.0035
 4544SOL    HW115073   3.802   2.100   9.566 -0.7348 -0.5096  0.4799
 4544SOL    HW215074   3.658   2.109   9.518 -0.2974  0.6004 -0.6823
 4545SOL     OW15075   6.040   3.470   6.079 -0.6325  0.1352 -0.0008
 4545SOL    HW115076   6.093   3.549   6.083  0.0037 -0.3028  0.6140
 4545SOL    HW215077   5.977   3.479   6.150  0.4412 -0.5842  1.0750
 4546SOL     OW15078   6.335   6.648   9.793  0.2929 -0.0296 -0.4075
 4546SOL    HW115079   6.269   6.676   9.857 -0.7633  0.6276 -1.7395
 4546SOL    HW215080   6.319   6.554   9.782 -1.3170  0.3447 -1.6558
 4547SOL     OW15081   2.327   1.469  10.749 -0.3423 -0.4458  0.1155
 4547SOL    HW115082   2.324   1.545  10.808  0.6518  1.0912 -1.6848
 4547SOL    HW215083   2.243   1.472  10.702 -0.2232 -0.3313 -0.0921
 4548SOL     OW15084   4.162   7.556   9.205  0.0185  0.1490  0.0109
 4548SOL    HW115085   4.160   7.472   9.252 -3.0039  0.4723  0.6551
 4548SOL    HW215086   4.219   7.612   9.258  1.4126 -1.2032  0.0078
 4549SOL     OW15087   6.788   2.121   6.936  0.4111 -0.2283  0.0859
 4549SOL    HW115088   6.757   2.049   6.990  2.0211 -0.0911  1.2811
 4549SOL    HW215089   6.807   2.082   6.851 -0.7653 -0.7458  0.0445
 4550SOL     OW15090   0.627   3.354   2.458  0.3939  0.0191  0.7338
 4550SOL    HW115091   0.652   3.325   2.546 -0.1830 -1.1982  0.5209
 4550SOL    HW215092   0.539   3.391   2.469  1.0700  1.6274  0.9778
 4551SOL     OW15093   5.371   7.492   4.581  0.0183  0.3846  0.5408
 4551SOL    HW115094   5.384   7.581   4.550  1.8947  0.3082  0.9542
 4551SOL    HW215095   5.427   7.485   4.658 -1.0697 -0.7815  1.2544
 4552SOL     OW15096   1.281   1.297   5.159 -0.2033 -0.3926 -0.5882
 4552SOL    HW115097   1.331   1.364   5.112 -2.1399  0.9915 -0.8107
 4552SOL    HW215098   1.324   1.215   5.137  2.1929  0.7255 -0.4201
 4553SOL     OW15099   2.020   1.868   3.574 -0.3195 -0.0805  0.3062
 4553SOL    HW115100   2.083   1.934   3.545  0.1711 -0.8210 -0.3373
 4553SOL    HW215101   1.997   1.895   3.663 -0.3210  1.0967 -0.0279
 4554SOL     OW15102   2.698   4.500   1.413  0.7254  0.0361  0.2848
 4554SOL    HW115103   2.621   4.467   1.458  2.2612 -1.8779  1.6905
 4554SOL    HW215104   2.716   4.585   1.454 -0.3156  0.2754  0.2709
 4555SOL     OW15105   5.044   5.262   2.749 -0.6960  0.2900  0.4664
 4555SOL    HW115106   4.974   5.198   2.757 -0.5382  0.1419  0.6740
 4555SOL    HW215107   5.124   5.210   2.743 -0.4595  0.4709  1.6715
 4556SOL     OW15108   5.958   4.628   3.836  0.3728 -0.1899 -0.1957
 4556SOL    HW115109   5.901   4.680   3.892 -1.0827 -2.0803  0.1790
 4556SOL    HW215110   6.032   4.602   3.892 -0.3865 -0.9356  0.4839
 4557SOL     OW15111   1.604   3.924   1.269  0.1651  0.2689 -0.4195
 4557SOL    HW115112   1.523   3.874   1.262 -1.6640  3.0989 -1.0300
 4557SOL    HW215113   1.587   3.988   1.337  1.9260  0.9213 -0.5429
 4558SOL     OW15114   2.991   1.709   2.823  0.1195 -0.0969  0.0264
 4558SOL    HW115115   3.041   1.628   2.812  0.2277 -0.0729  0.3300
 4558SOL    HW215116   2.938   1.694   2.901 -0.2138 -0.0524 -0.1890
 4559SOL     OW15117   0.089   7.087   2.940  0.2260 -0.3425 -0.4744
 4559SOL    HW115118  -0.006   7.085   2.929 -0.0749  0.8550  1.4849
 4559SOL    HW215119   0.103   7.055   3.029  1.4206  2.1164  0.2867
 4560SOL     OW15120   3.742   3.693   4.454 -0.2137 -0.2327 -0.6914
 4560SOL    HW115121   3.773   3.608   4.485  0.0065  0.6433  1.6517
 4560SOL    HW215122   3.652   3.677   4.424  0.2097 -1.4791 -1.3723
 4561SOL     OW15123   5.596   5.603   7.928  0.2518  0.4162 -0.0260
 4561SOL    HW115124   5.568   5.535   7.867 -4.0430  1.6570  0.2304
 4561SOL    HW215125   5.625   5.675   7.873 -1.5098  0.7291 -0.5929
 4562SOL     OW15126   4.603   6.033   0.028  0.2395  0.1075  0.2950
 4562SOL    HW115127   4.638   5.945   0.013  1.9804  0.8719 -0.4339
 4562SOL    HW215128   4.564   6.029   0.116 -1.0119 -1.7373 -0.2772
 4563SOL     OW15129   1.336   5.870   6.823  0.6214  0.1047 -0.2422
 4563SOL    HW115130   1.280   5.935   6.780  1.2323 -0.7722 -2.5050
 4563SOL    HW215131   1.421   5.913   6.832  0.7941 -0.0697 -0.9667
 4564SOL     OW15132   6.694   0.579   5.217  0.1615  0.0590  0.1263
 4564SOL    HW115133   6.634   0.546   5.283 -0.9984 -0.3961 -1.1130
 4564SOL    HW215134   6.769   0.519   5.220 -1.0946 -1.6513 -0.8129
 4565SOL     OW15135   6.523   2.953   9.509  0.0878  0.1242  0.2456
 4565SOL    HW115136   6.548   3.035   9.551 -3.4355  0.5713  1.8777
 4565SOL    HW215137   6.486   2.980   9.425 -0.5738  0.1934  0.5507
 4566SOL     OW15138   5.852   2.317   5.609 -0.8137 -0.0396  0.1681
 4566SOL    HW115139   5.879   2.373   5.536  0.6513 -0.3099  0.4644
 4566SOL    HW215140   5.908   2.239   5.601 -1.4583 -0.5902  0.9009
 4567SOL     OW15141   7.561   1.804   1.888  0.2968 -0.5017 -0.3654
 4567SOL    HW115142   7.500   1.858   1.838  0.2367  0.3985  0.6420
 4567SOL    HW215143   7.634   1.789   1.828  1.1021  2.1381 -0.1746
 4568SOL     OW15144   2.959   1.108  11.157 -0.2721  0.1915 -0.0707
 4568SOL    HW115145   2.946   1.045  11.087 -2.9395  2.7090 -2.0496
 4568SOL    HW215146   2.887   1.092  11.218 -1.2875  1.5395 -0.8557
 4569SOL     OW15147   2.692   0.309   3.787 -0.1115  0.0251 -0.0443
 4569SOL    HW115148   2.740   0.258   3.722 -1.1988 -0.3805 -0.5565
 4569SOL    HW215149   2.602   0.310   3.755 -0.7488 -0.4625  1.6374
 4570SOL     OW15150   3.172   3.583   4.589 -0.2644  0.1432  0.0886
 4570SOL    HW115151   3.221   3.509   4.626 -0.6679  0.0801  0.5085
 4570SOL    HW215152   3.136   3.628   4.665  0.3350  1.0320 -0.1485
 4571SOL     OW15153   5.392   7.564   7.923 -0.6319  0.8912  0.2006
 4571SOL    HW115154   5.347   7.540   7.842 -1.9622  2.0744  0.5519
 4571SOL    HW215155   5.482   7.580   7.897 -1.1672  1.8555 -1.1762
 4572SOL     OW15156   5.395   6.710   0.818 -0.5593 -0.6590 -0.4905
 4572SOL    HW115157   5.405   6.699   0.912 -0.0943 -0.6790 -0.5427
 4572SOL    HW215158   5.333   6.783   0.809  0.9667  0.7147 -0.1767
 4573SOL     OW15159   2.035   1.450   1.687  0.6366 -0.0180 -0.7676
 4573SOL    HW115160   2.038   1.484   1.598 -0.2240  1.2287 -0.3482
 4573SOL    HW215161   2.071   1.520   1.741 -0.3598 -0.0810  0.0211
 4574SOL     OW15162   7.021   7.823  10.624 -0.3573 -0.5216  0.0668
 4574SOL    HW115163   7.036   7.906  10.669  3.5165 -0.9235 -0.1754
 4574SOL    HW215164   7.082   7.762  10.664  0.1251 -2.0565 -2.7342
 4575SOL     OW15165   2.735   4.824   1.230 -0.0840  0.0770 -0.0461
 4575SOL    HW115166   2.697   4.884   1.295 -2.4119 -0.0073 -1.2114
 4575SOL    HW215167   2.699   4.853   1.147  4.2207  1.3056 -1.7217
 4576SOL     OW15168   0.719   3.711  10.098 -0.5231  0.0939  0.2514
 4576SOL    HW115169   0.683   3.673  10.178  0.0384  1.3411  1.1396
 4576SOL    HW215170   0.800   3.753  10.127  0.0562 -0.0547 -1.1226
 4577SOL     OW15171   4.612   5.076   7.850  0.1790  0.0367 -0.2233
 4577SOL    HW115172   4.580   5.069   7.760 -1.2319  0.7591  0.1906
 4577SOL    HW215173   4.698   5.034   7.849  0.2082  0.1061 -1.9145
 4578SOL     OW15174   0.369   7.134   1.535 -0.1383 -0.4403 -0.3302
 4578SOL    HW115175   0.430   7.089   1.476  0.3500 -0.6905  0.3577
 4578SOL    HW215176   0.305   7.175   1.476  0.7277 -0.1042 -1.0674
 4579SOL     OW15177   4.067   0.619   4.084  0.2736 -0.5141  0.4050
 4579SOL    HW115178   4.057   0.631   4.179 -1.9369  2.3445 -0.0358
 4579SOL    HW215179   4.161   0.624   4.069  0.5957  0.2545  2.3438
 4580SOL     OW15180   6.644   1.949   9.670  0.7700 -0.0963  0.3371
 4580SOL    HW115181   6.577   1.946   9.739  2.2941  0.2076  1.8929
 4580SOL    HW215182   6.699   1.872   9.688  1.3444  0.1408 -0.3908
 4581SOL     OW15183   2.814   1.435   7.242 -0.4879 -0.2312  0.6477
 4581SOL    HW115184   2.729   1.464   7.208 -0.4632 -2.0275 -1.0923
 4581SOL    HW215185   2.843   1.367   7.182  0.8259 -1.7771  2.8493
 4582SOL     OW15186   3.609   1.899  10.073 -0.0698  0.2363 -0.1541
 4582SOL    HW115187   3.586   1.885  10.164 -0.0923 -0.3794 -0.2552
 4582SOL    HW215188   3.540   1.956  10.040 -0.7979 -0.6216 -0.1362
 4583SOL     OW15189   0.179   6.333   7.482 -0.4013  0.8110  0.6097
 4583SOL    HW115190   0.119   6.386   7.429  0.1916  0.3763 -0.5443
 4583SOL    HW215191   0.205   6.261   7.424  0.1874  0.2468  1.5408
 4584SOL     OW15192   2.169   3.830   3.312  0.2249  0.3358 -0.2505
 4584SOL    HW115193   2.179   3.735   3.302  0.1010  0.3086 -0.1080
 4584SOL    HW215194   2.257   3.865   3.294 -0.1977  0.3797 -2.5099
 4585SOL     OW15195   5.852   6.703   4.915 -0.2331  0.2343 -0.2298
 4585SOL    HW115196   5.825   6.644   4.845  0.1493 -1.8881  1.2949
 4585SOL    HW215197   5.795   6.680   4.988  1.2500  0.3109  1.0113
 4586SOL     OW15198   5.185   0.656   4.751  0.4711  0.2259  0.4317
 4586SOL    HW115199   5.204   0.748   4.731  0.6350  0.3704  1.1909
 4586SOL    HW215200   5.109   0.661   4.810 -0.1445 -0.1840 -0.3199
 4587SOL     OW15201   1.776   0.875   8.310 -0.4268  0.8376 -0.1832
 4587SOL    HW115202   1.686   0.856   8.281  0.4859 -3.7046 -0.6520
 4587SOL    HW215203   1.800   0.802   8.366  3.2023  1.5413 -0.5716
 4588SOL     OW15204   1.006   0.195   5.151 -0.1666  0.1690 -0.6129
 4588SOL    HW115205   0.962   0.171   5.070 -1.4101 -0.3372  0.1728
 4588SOL    HW215206   0.982   0.125   5.212  0.1006  0.9431  0.4024
 4589SOL     OW15207   5.256   3.439   5.357 -0.1012  0.4021 -0.7938
 4589SOL    HW115208   5.190   3.493   5.402  0.7399  0.9117 -0.1426
 4589SOL    HW215209   5.335   3.450   5.409  0.1429 -1.3457 -0.7605
 4590SOL     OW15210   7.807   6.129   0.559  0.2711  0.0992  0.0899
 4590SOL    HW115211   7.855   6.084   0.628  0.2587 -1.6308 -0.9505
 4590SOL    HW215212   7.731   6.166   0.602  1.1304  0.5333  1.2828
 4591SOL     OW15213   1.249   0.183   7.812  0.8137  0.3258  0.3844
 4591SOL    HW115214   1.337   0.159   7.838  0.9584 -0.0316 -0.4001
 4591SOL    HW215215   1.253   0.278   7.796  0.7933  0.4965  1.3207
 4592SOL     OW15216   4.104   7.685  11.438  0.1155  0.3361 -0.0727
 4592SOL    HW115217   4.175   7.742  11.466  0.5584  0.8288 -2.0887
 4592SOL    HW215218   4.029   7.744  11.428 -0.4979 -0.1028  1.5583
 4593SOL     OW15219   7.133   0.991   9.508 -0.0420  0.6221 -0.3173
 4593SOL    HW115220   7.216   1.029   9.478  1.7407 -2.6165  0.0971
 4593SOL    HW215221   7.127   1.018   9.600  0.5247  0.8808 -0.3503
 4594SOL     OW15222   1.745   4.759  10.265 -0.2185  0.4210  0.1834
 4594SOL    HW115223   1.656   4.761  10.230 -0.6927  0.2464  1.3318
 4594SOL    HW215224   1.756   4.670  10.297 -0.1485  0.8175  1.3020
 4595SOL     OW15225   0.353   1.956   6.807 -0.1097  0.1399  0.4033
 4595SOL    HW115226   0.420   1.932   6.743 -0.7811  0.0928 -0.3068
 4595SOL    HW215227   0.343   2.051   6.796  0.7116  0.3652  1.3939
 4596SOL     OW15228   2.502   0.353   8.061 -0.3076  0.0436  0.2824
 4596SOL    HW115229   2.518   0.375   8.153  0.7361 -1.4277  0.4936
 4596SOL    HW215230   2.566   0.404   8.012  0.4906 -0.6883  0.5538
 4597SOL     OW15231   1.564   6.759   6.080  0.3001  0.0792 -0.1144
 4597SOL    HW115232   1.491   6.776   6.020  0.2679 -0.5606 -0.2636
 4597SOL    HW215233   1.573   6.840   6.130  0.2523  0.5842 -0.9019
 4598SOL     OW15234   1.641   5.878   2.515  0.7573 -0.6095  0.4567
 4598SOL    HW115235   1.645   5.783   2.526 -0.0638 -0.8738 -1.2300
 4598SOL    HW215236   1.615   5.891   2.424 -1.4233  1.1984  1.2252
 4599SOL     OW15237   2.998   2.389   4.604  0.0551  0.0355 -0.3106
 4599SOL    HW115238   2.964   2.322   4.664 -0.3844  0.3545 -0.1933
 4599SOL    HW215239   3.062   2.437   4.656 -1.2222  1.1126  0.3319
 4600SOL     OW15240   3.366   6.323   4.666 -0.2630 -0.0285  0.4649
 4600SOL    HW115241   3.336   6.316   4.756  0.9361 -0.9424  0.8164
 4600SOL    HW215242   3.443   6.379   4.670 -1.1016  1.2421 -0.2427
 4601SOL     OW15243   5.233   1.915   7.106  0.6303 -0.3226 -0.2597
 4601SOL    HW115244   5.315   1.882   7.142  1.4550  1.3877 -0.4770
 4601SOL    HW215245   5.244   1.910   7.011  1.0701  1.1755 -0.3148
 4602SOL     OW15246   1.269   5.876  11.242  0.6201  0.9249 -0.2518
 4602SOL    HW115247   1.355   5.842  11.266  0.1612  0.0150  0.1704
 4602SOL    HW215248   1.284   5.968  11.221  1.4977  1.0913  0.9869
 4603SOL     OW15249   0.486   5.788   3.427  0.0431 -0.2500  0.6783
 4603SOL    HW115250   0.473   5.883   3.431  0.5929  0.0131 -1.7569
 4603SOL    HW215251   0.399   5.753   3.407 -0.0414 -0.2004  0.9561
 4604SOL     OW15252   0.111   7.588   8.906 -0.3838 -0.6321 -0.0285
 4604SOL    HW115253   0.135   7.594   8.998  1.6332 -0.6089 -0.5050
 4604SOL    HW215254   0.068   7.671   8.886 -0.3989 -0.4427  0.7753
 4605SOL     OW15255   0.226   5.266   7.246  0.1934 -0.3483  0.0590
 4605SOL    HW115256   0.275   5.302   7.172 -0.0585  1.4357  0.7124
 4605SOL    HW215257   0.291   5.221   7.299  1.0140  1.2995  0.5008
 4606SOL     OW15258   2.392   1.204   7.884 -0.0376  0.1835  0.0144
 4606SOL    HW115259   2.439   1.134   7.929  0.5255  0.0240 -0.7876
 4606SOL    HW215260   2.435   1.285   7.913 -1.5325  0.3582  1.9677
 4607SOL     OW15261   6.540   4.315   7.395 -0.0035  0.2524 -0.2850
 4607SOL    HW115262   6.583   4.255   7.456 -0.1860 -0.8483 -1.2172
 4607SOL    HW215263   6.601   4.389   7.388  0.6515 -0.2312  0.1923
 4608SOL     OW15264   5.143   1.489  11.984  0.1569  0.0977  0.3493
 4608SOL    HW115265   5.145   1.396  11.963 -0.3838 -0.0884  1.0799
 4608SOL    HW215266   5.081   1.526  11.921 -1.6170 -0.4940  1.6448
 4609SOL     OW15267   1.707   3.871   7.564  0.0852 -0.0465 -0.0363
 4609SOL    HW115268   1.802   3.861   7.561  0.1171 -0.1873  1.0111
 4609SOL    HW215269   1.686   3.920   7.485  0.7857 -1.7636 -1.3386
 4610SOL     OW15270   3.910   1.971  11.379 -0.2857  0.8193 -1.1512
 4610SOL    HW115271   3.924   2.030  11.453  0.7368  1.5939 -1.9296
 4610SOL    HW215272   3.818   1.943  11.387 -0.5762  1.9522 -0.3617
 4611SOL     OW15273   6.873   0.459   0.366 -0.5722 -0.0687 -0.2312
 4611SOL    HW115274   6.920   0.487   0.444 -2.2600 -0.3258  0.9212
 4611SOL    HW215275   6.921   0.500   0.293  2.0106 -1.1338  0.7426
 4612SOL     OW15276   3.205   6.286   3.928  0.5671  0.6027  0.2724
 4612SOL    HW115277   3.272   6.335   3.881  0.1474  0.1366 -0.8369
 4612SOL    HW215278   3.196   6.204   3.880  1.3683 -0.6820  2.1815
 4613SOL     OW15279   0.844   6.620  11.005 -0.2905  0.0211  0.0856
 4613SOL    HW115280   0.803   6.677  10.939 -1.9282  0.0648  1.0750
 4613SOL    HW215281   0.790   6.541  11.005 -2.4602  1.2932  3.5986
 4614SOL     OW15282   5.003   4.579   4.367  0.3335 -0.0039  0.3045
 4614SOL    HW115283   5.057   4.656   4.384 -1.8513  2.1663 -1.8194
 4614SOL    HW215284   4.924   4.593   4.419 -1.2249  0.6678 -2.0592
 4615SOL     OW15285   4.083   3.920   9.865  0.0742 -0.2010  0.2891
 4615SOL    HW115286   4.119   3.968   9.940  0.9128  1.2248 -0.9518
 4615SOL    HW215287   4.157   3.870   9.832  0.0038  0.0198 -0.2091
 4616SOL     OW15288   1.693   1.081   9.908 -0.6549  0.1870  0.5854
 4616SOL    HW115289   1.769   1.074   9.850  0.6169  1.7288  1.9383
 4616SOL    HW215290   1.699   1.004   9.965 -0.1528  0.2435  0.6135
 4617SOL     OW15291   2.981   4.800   6.683  0.0740 -0.6745  0.1739
 4617SOL    HW115292   2.930   4.789   6.603  0.4780  2.2372 -0.5891
 4617SOL    HW215293   3.066   4.760   6.663 -0.1748 -0.9039 -0.4476
 4618SOL     OW15294   3.882   5.239   5.170 -0.5629  0.0115  0.1914
 4618SOL    HW115295   3.886   5.274   5.259 -1.6882 -0.7416  0.5549
 4618SOL    HW215296   3.888   5.316   5.114 -0.0621  0.5143  0.9045
 4619SOL     OW15297   4.602   0.513   6.998 -0.2479 -0.2948 -0.0542
 4619SOL    HW115298   4.601   0.419   7.016  0.4402 -0.2369  0.3380
 4619SOL    HW215299   4.671   0.525   6.934 -0.3744 -0.0646 -0.1484
 4620SOL     OW15300   7.571   1.324   4.818  0.1565  0.1247  0.2796
 4620SOL    HW115301   7.487   1.369   4.821 -0.5568 -1.1919  1.4306
 4620SOL    HW215302   7.590   1.303   4.910  0.4528 -1.8128 -0.1647
 4621SOL     OW15303   4.468   5.032   8.959 -0.0385 -0.4833 -0.3519
 4621SOL    HW115304   4.492   5.039   8.867 -2.4675  2.8556 -0.9186
 4621SOL    HW215305   4.381   4.992   8.958 -0.2308 -0.1073  0.4390
 4622SOL     OW15306   0.770   4.686   6.558 -0.1371 -0.2982 -0.3010
 4622SOL    HW115307   0.856   4.648   6.544  0.0099 -0.3100  0.5603
 4622SOL    HW215308   0.781   4.779   6.536 -0.3131 -0.5922 -1.6982
 4623SOL     OW15309   1.592   6.671  10.233  0.8428 -0.0227  0.0815
 4623SOL    HW115310   1.632   6.758  10.234  2.2817 -0.5400 -2.4521
 4623SOL    HW215311   1.647   6.619  10.293  3.0543 -0.2769 -2.0170
 4624SOL     OW15312   2.412   5.285   7.306  0.0975  0.3630 -0.0540
 4624SOL    HW115313   2.452   5.263   7.390  3.5997  0.3370 -1.5534
 4624SOL    HW215314   2.413   5.380   7.303  0.9738  0.3484 -0.4625
 4625SOL     OW15315   5.919   0.120   5.243  0.1109  0.1302  0.2114
 4625SOL    HW115316   5.905   0.123   5.148 -0.0727  1.8255  0.2601
 4625SOL    HW215317   5.864   0.190   5.278 -0.8281 -1.2746  1.7359
 4626SOL     OW15318   5.083   4.326   7.399 -0.3005 -0.1572 -0.4563
 4626SOL    HW115319   5.024   4.319   7.474 -1.1746  1.9725 -0.8625
 4626SOL    HW215320   5.030   4.297   7.324 -0.7915  1.4490 -0.7737
 4627SOL     OW15321   2.542   7.141   9.890 -0.5956  0.5702  0.6812
 4627SOL    HW115322   2.474   7.074   9.885 -0.1174  0.0976  0.4180
 4627SOL    HW215323   2.524   7.199   9.816 -0.1793 -0.0677  0.0700
 4628SOL     OW15324   2.218   0.323   3.513  0.0714 -0.8808 -0.2269
 4628SOL    HW115325   2.128   0.336   3.484  0.5390  1.3330 -0.8430
 4628SOL    HW215326   2.261   0.282   3.438  0.2062  0.6812 -1.0534
 4629SOL     OW15327   6.274   7.675   5.586 -0.6209  0.2521  0.3406
 4629SOL    HW115328   6.265   7.583   5.561  2.1768  0.3196 -1.4305
 4629SOL    HW215329   6.278   7.722   5.503 -0.7465  1.8310  1.1843
 4630SOL     OW15330   2.737   7.839   8.901  0.4451  0.4799  0.5784
 4630SOL    HW115331   2.644   7.860   8.898  0.2194 -0.0202  2.6616
 4630SOL    HW215332   2.742   7.748   8.872  0.3371  0.6142  0.1314
 4631SOL     OW15333   0.552   7.161   4.293  0.8302  0.1643 -0.2419
 4631SOL    HW115334   0.557   7.067   4.276 -1.9505 -0.0360 -0.4865
 4631SOL    HW215335   0.529   7.167   4.385 -1.4265  0.4312 -0.7714
 4632SOL     OW15336   2.810   5.162   7.323 -0.4338  0.0571  0.0295
 4632SOL    HW115337   2.893   5.166   7.371 -0.2579  1.6821 -0.3461
 4632SOL    HW215338   2.827   5.104   7.250  0.6861  1.0915 -0.5667
 4633SOL     OW15339   2.241   2.276   6.675  0.2193  0.3325  0.0799
 4633SOL    HW115340   2.195   2.327   6.608  0.9033  0.4000 -0.3474
 4633SOL    HW215341   2.187   2.197   6.686  0.5685 -0.1254 -1.2318
 4634SOL     OW15342   1.688   0.312   7.919 -0.4819  0.3001  0.0023
 4634SOL    HW115343   1.597   0.319   7.948 -0.0347  0.7425  1.3564
 4634SOL    HW215344   1.719   0.229   7.955  0.1567  0.9710  1.0387
 4635SOL     OW15345   4.174   1.658   3.092  0.2423  0.4554  0.1128
 4635SOL    HW115346   4.262   1.680   3.062 -0.0460  2.6693  0.7116
 4635SOL    HW215347   4.147   1.733   3.145 -1.7716 -0.4555  0.4869
 4636SOL     OW15348   6.404   7.195   1.421  0.2262  0.6324 -0.0740
 4636SOL    HW115349   6.353   7.263   1.464  0.0354 -0.1519  0.9606
 4636SOL    HW215350   6.392   7.211   1.327 -0.9671  1.1540  0.1614
 4637SOL     OW15351   5.161   6.926   0.144 -0.0550  0.4776  0.1759
 4637SOL    HW115352   5.078   6.974   0.154 -0.0593  0.7259 -0.9092
 4637SOL    HW215353   5.135   6.839   0.115  0.0862  0.9853 -1.6134
 4638SOL     OW15354   0.061   3.958  10.208 -0.7355 -0.0252  0.6848
 4638SOL    HW115355   0.116   3.883  10.186  0.7512  0.4766  2.4594
 4638SOL    HW215356  -0.026   3.921  10.221 -0.3643 -1.1868 -0.0306
 4639SOL     OW15357   4.685   1.833  10.934  0.7230 -0.5524 -0.1095
 4639SOL    HW115358   4.596   1.866  10.942  0.3820 -0.8928 -1.9577
 4639SOL    HW215359   4.738   1.890  10.990 -0.5464  0.1074  0.4378
 4640SOL     OW15360   4.872   5.413   3.015  0.1136 -0.5675 -0.1654
 4640SOL    HW115361   4.950   5.377   3.059 -2.3638 -1.7549  3.7677
 4640SOL    HW215362   4.871   5.505   3.038  1.1856 -0.1037 -1.7760
 4641SOL     OW15363   5.961   4.094   8.910  0.6322 -0.1564 -0.4296
 4641SOL    HW115364   6.011   4.051   8.840  1.6008 -1.4636  1.0005
 4641SOL    HW215365   5.877   4.048   8.911  0.5001  0.0735 -0.9327
 4642SOL     OW15366   1.534   7.779   7.918  0.2639 -0.4920  0.1157
 4642SOL    HW115367   1.455   7.733   7.945 -0.4510 -0.3171 -1.5088
 4642SOL    HW215368   1.555   7.741   7.832  2.0653 -0.6699  0.5951
 4643SOL     OW15369   4.976   1.984   3.916 -0.6605  0.1247  0.2739
 4643SOL    HW115370   5.023   2.027   3.988 -0.7537  1.2376 -0.3095
 4643SOL    HW215371   5.042   1.977   3.846 -1.3338  1.7871 -0.5887
 4644SOL     OW15372   0.725   4.829   3.281  0.1169 -0.4479  0.1870
 4644SOL    HW115373   0.821   4.837   3.279  0.0915 -0.2441 -0.4105
 4644SOL    HW215374   0.694   4.915   3.252 -0.2346 -0.8168 -0.5609
 4645SOL     OW15375   2.405   2.597   8.859  0.1932  0.2788 -0.4177
 4645SOL    HW115376   2.380   2.649   8.782 -1.4238  0.0387 -0.0881
 4645SOL    HW215377   2.496   2.621   8.875  1.6325 -1.8109 -4.1597
 4646SOL     OW15378   7.261   2.364   5.215 -1.3709  0.5658 -0.0339
 4646SOL    HW115379   7.263   2.279   5.260 -1.8532  0.5109 -0.1107
 4646SOL    HW215380   7.263   2.428   5.286  1.0033  0.5454 -0.0039
 4647SOL     OW15381   5.415   5.291  10.337 -0.1759  0.2687  0.4497
 4647SOL    HW115382   5.347   5.302  10.404  0.1463  0.5146  0.7419
 4647SOL    HW215383   5.382   5.340  10.262 -0.4507  0.1565  0.4961
 4648SOL     OW15384   6.174   5.453   3.116  0.2218  0.0206 -0.2090
 4648SOL    HW115385   6.152   5.540   3.149 -1.9264 -1.3504  2.3399
 4648SOL    HW215386   6.093   5.421   3.076 -0.1972 -2.0961  2.1148
 4649SOL     OW15387   5.786   5.891  11.314  0.0293  0.2509 -0.2647
 4649SOL    HW115388   5.699   5.915  11.348 -0.2105  0.8894 -1.2762
 4649SOL    HW215389   5.844   5.899  11.389 -0.7782 -0.1440  0.4212
 4650SOL     OW15390   4.773   7.708  10.929 -0.0991 -0.0527  0.1350
 4650SOL    HW115391   4.764   7.725  10.835 -0.0291  0.9440  0.3058
 4650SOL    HW215392   4.700   7.755  10.969  0.7969  0.8572  0.7254
 4651SOL     OW15393   0.082   2.511   4.883  0.0127 -0.6239 -0.4848
 4651SOL    HW115394   0.122   2.548   4.962  1.2216 -0.3079 -1.2079
 4651SOL    HW215395  -0.002   2.476   4.912 -0.3252  1.0002  0.5987
 4652SOL     OW15396   4.638   5.191   5.706  0.0637  0.1015 -0.3351
 4652SOL    HW115397   4.700   5.244   5.756 -0.9385 -0.3490  1.4684
 4652SOL    HW215398   4.569   5.252   5.682  0.4664  0.2833 -1.0499
 4653SOL     OW15399   1.305   1.252   8.909  0.5259  0.7768 -0.2251
 4653SOL    HW115400   1.229   1.310   8.919 -0.3861 -0.0767 -1.8426
 4653SOL    HW215401   1.349   1.256   8.994 -1.5164  1.0310  0.8853
 4654SOL     OW15402   7.276   0.314   1.169  0.8487  0.4590  0.0617
 4654SOL    HW115403   7.225   0.362   1.104  1.3926 -1.8528 -2.2604
 4654SOL    HW215404   7.212   0.287   1.235 -0.2664  0.5532 -0.9447
 4655SOL     OW15405   3.032   7.253   5.145 -0.3016 -0.1873  0.1700
 4655SOL    HW115406   3.067   7.327   5.095 -0.1033  0.9185  1.8375
 4655SOL    HW215407   3.109   7.202   5.169 -0.2749 -0.1250  0.2190
 4656SOL     OW15408   2.096   0.493  10.769  0.1676 -0.6309 -0.1126
 4656SOL    HW115409   2.144   0.472  10.850  0.0223 -0.7268 -0.0500
 4656SOL    HW215410   2.098   0.588  10.764 -0.1933 -0.6005  0.2341
 4657SOL     OW15411   4.282   1.086   9.649  0.3847  0.1091 -0.3762
 4657SOL    HW115412   4.265   1.154   9.714 -2.4148 -0.4891 -0.3600
 4657SOL    HW215413   4.373   1.060   9.664  0.4138  1.3650  1.9862
 4658SOL     OW15414   1.930   2.481   8.065 -0.0570  0.4700  0.1530
 4658SOL    HW115415   1.994   2.525   8.121  0.2668  0.8140 -0.4829
 4658SOL    HW215416   1.852   2.536   8.071  0.2323  0.9433 -0.3579
 4659SOL     OW15417   0.899   0.605   4.047 -0.0322  0.4719 -0.5446
 4659SOL    HW115418   0.993   0.600   4.033 -0.1307  0.9655 -1.4466
 4659SOL    HW215419   0.861   0.605   3.959 -0.7173  3.0062 -0.3368
 4660SOL     OW15420   3.017   7.614   2.105 -1.0826 -0.0174 -0.8156
 4660SOL    HW115421   3.092   7.555   2.107 -0.9129  0.2251  0.3784
 4660SOL    HW215422   2.969   7.588   2.026 -1.2898 -2.1104 -0.0647
 4661SOL     OW15423   7.627   2.611   1.051  0.0277 -0.2999  0.4389
 4661SOL    HW115424   7.558   2.620   1.117  0.3160 -1.3428  0.9095
 4661SOL    HW215425   7.678   2.691   1.059 -0.9635  0.3724  0.2598
 4662SOL     OW15426   5.913   2.565  12.190  0.2084  0.5597  0.3397
 4662SOL    HW115427   5.932   2.656  12.214  1.0665  0.5734 -0.3300
 4662SOL    HW215428   5.983   2.514  12.231 -1.9920 -0.2376  3.4121
 4663SOL     OW15429   3.299   3.545   7.568 -0.3599  0.2103  0.2007
 4663SOL    HW115430   3.240   3.469   7.571 -1.9234  1.3960  0.5792
 4663SOL    HW215431   3.274   3.598   7.643  1.4090  0.6296  0.5386
 4664SOL     OW15432   5.135   0.915  10.076  0.2071  0.2940  0.0122
 4664SOL    HW115433   5.124   0.834  10.025  0.3294  0.1189  0.2602
 4664SOL    HW215434   5.208   0.960  10.034 -0.2047  0.5343 -0.4587
 4665SOL     OW15435   3.406   0.455   2.780 -0.0741 -0.2525  0.0823
 4665SOL    HW115436   3.487   0.442   2.829  0.0189 -0.2403 -0.0667
 4665SOL    HW215437   3.353   0.512   2.836  1.0037  1.7910 -0.8660
 4666SOL     OW15438   0.394   5.801  12.312  0.1383 -0.1856 -0.1836
 4666SOL    HW115439   0.366   5.712  12.333  0.6188 -0.2388  0.2563
 4666SOL    HW215440   0.468   5.817  12.371  0.0937  0.4803 -0.3060
 4667SOL     OW15441   5.770   5.700   7.762 -0.1562  0.6411  0.2066
 4667SOL    HW115442   5.773   5.651   7.679 -3.2025 -1.3548  1.0834
 4667SOL    HW215443   5.791   5.790   7.737  3.2201 -0.5276 -1.9457
 4668SOL     OW15444   0.276   4.958   3.499 -0.1885 -0.2216  0.2933
 4668SOL    HW115445   0.362   5.001   3.491 -1.0764  2.1942  2.4745
 4668SOL    HW215446   0.215   5.020   3.460 -1.1742 -1.0795  0.4369
 4669SOL     OW15447   0.246   3.162   3.572 -0.2753  0.0897 -0.1759
 4669SOL    HW115448   0.204   3.222   3.511 -2.4885 -0.9392  0.1962
 4669SOL    HW215449   0.260   3.214   3.651 -0.3126  0.6246 -0.5161
 4670SOL     OW15450   0.003   5.594   4.646  0.0284 -0.2730 -0.4016
 4670SOL    HW115451  -0.017   5.523   4.707  0.1727 -0.4778 -0.5910
 4670SOL    HW215452   0.099   5.600   4.646 -0.0196  0.7665  0.5747
 4671SOL     OW15453   0.191   4.630  11.712  0.3182 -0.1103  0.9054
 4671SOL    HW115454   0.258   4.564  11.729 -1.1308 -1.9396 -0.2748
 4671SOL    HW215455   0.222   4.676  11.634 -0.0691 -1.3934 -0.0385
 4672SOL     OW15456   0.912   1.338   4.553 -0.5193 -0.2084 -0.5679
 4672SOL    HW115457   0.986   1.398   4.542 -0.1138 -0.5694  0.1116
 4672SOL    HW215458   0.910   1.320   4.647 -0.4106 -1.5312 -0.8067
 4673SOL     OW15459   3.669   4.710  11.772 -0.3655  0.2708  0.1143
 4673SOL    HW115460   3.614   4.633  11.790 -0.0372  0.0633  0.2373
 4673SOL    HW215461   3.678   4.711  11.677  2.1622 -1.6610  0.2111
 4674SOL     OW15462   7.590   0.681   4.890  0.0372 -0.1682  0.1313
 4674SOL    HW115463   7.501   0.711   4.870  0.7351  1.6400 -0.4922
 4674SOL    HW215464   7.617   0.736   4.964  0.4600 -1.0951  0.6821
 4675SOL     OW15465   4.146   7.083   7.497 -0.0751  0.0133 -0.7958
 4675SOL    HW115466   4.065   7.110   7.539  0.5000  0.4815  0.0278
 4675SOL    HW215467   4.208   7.153   7.517  0.3898 -0.0547 -1.9014
 4676SOL     OW15468   4.722   6.399   5.581  0.3081 -0.6610 -0.1195
 4676SOL    HW115469   4.726   6.307   5.556  2.6120 -0.8205  0.6192
 4676SOL    HW215470   4.739   6.447   5.500  0.8725 -0.9531 -0.1791
 4677SOL     OW15471   2.046   0.931  10.377  0.4125  0.3324  0.4676
 4677SOL    HW115472   1.976   0.884  10.422  0.1478  1.2175  1.0277
 4677SOL    HW215473   2.072   1.000  10.439  1.5074  0.2646  0.1046
 4678SOL     OW15474   2.635   4.161   5.100 -0.5495  0.2677 -0.1781
 4678SOL    HW115475   2.604   4.073   5.077 -1.3930  0.3801  0.4692
 4678SOL    HW215476   2.700   4.147   5.168  0.6450  0.0444 -1.3388
 4679SOL     OW15477   0.676   1.051   4.281 -0.6081  0.3227 -0.2700
 4679SOL    HW115478   0.700   0.970   4.234 -0.2380  0.6091 -0.5811
 4679SOL    HW215479   0.580   1.048   4.285 -0.8218  1.1938 -2.7243
 4680SOL     OW15480   7.122   4.751   5.346 -0.1309 -0.9642  0.2145
 4680SOL    HW115481   7.033   4.717   5.333 -0.6681 -0.4256  2.1552
 4680SOL    HW215482   7.162   4.688   5.405  0.2179 -0.3178  0.6680
 4681SOL     OW15483   5.043   6.688   2.764  0.0053  0.7573  0.2031
 4681SOL    HW115484   5.075   6.640   2.688 -0.4016 -0.0404  0.5328
 4681SOL    HW215485   5.117   6.741   2.792  0.7639 -0.3946  0.4181
 4682SOL     OW15486   7.396   1.687  11.425 -0.3437 -0.3135 -0.0178
 4682SOL    HW115487   7.307   1.722  11.427 -0.8166 -1.3717 -1.1580
 4682SOL    HW215488   7.387   1.598  11.461 -0.5040 -1.8292 -3.3576
 4683SOL     OW15489   6.112   6.480   7.667 -0.1110  0.2106 -0.5244
 4683SOL    HW115490   6.098   6.386   7.674 -2.3151  0.5032 -0.3010
 4683SOL    HW215491   6.124   6.496   7.573 -0.3685 -0.2104 -0.6299
 4684SOL     OW15492   5.233   3.297   0.804 -0.1879 -0.1102  0.0335
 4684SOL    HW115493   5.200   3.233   0.868  0.2126  0.3240  0.6910
 4684SOL    HW215494   5.156   3.323   0.754 -0.5642 -0.2413  0.5335
 4685SOL     OW15495   7.524   2.070   6.546  0.3210 -0.3340 -0.0406
 4685SOL    HW115496   7.585   2.141   6.523  0.2304 -0.5041 -0.8442
 4685SOL    HW215497   7.581   1.997   6.568  0.4153 -0.1732  0.2484
 4686SOL     OW15498   7.862   0.107   5.761 -0.0394 -0.4574  0.2816
 4686SOL    HW115499   7.852   0.013   5.773 -1.5250 -0.4722 -0.8350
 4686SOL    HW215500   7.948   0.117   5.720  0.5741 -1.2199  1.3354
 4687SOL     OW15501   5.337   5.560   1.720  0.0147  0.4313  0.7223
 4687SOL    HW115502   5.316   5.468   1.704 -0.6661  0.7907 -0.5917
 4687SOL    HW215503   5.375   5.561   1.808 -2.7706 -0.7162  2.0731
 4688SOL     OW15504   0.134   4.121   3.174 -0.7127  0.0920  0.3933
 4688SOL    HW115505   0.102   4.071   3.249  0.1397  0.9043  1.3148
 4688SOL    HW215506   0.057   4.133   3.119 -0.7001 -3.4324 -0.5930
 4689SOL     OW15507   3.555   5.729   1.519  0.5372  0.1364 -0.2385
 4689SOL    HW115508   3.614   5.801   1.540 -0.6170  0.2065  3.4889
 4689SOL    HW215509   3.468   5.767   1.522  0.0389 -0.8835 -0.9605
 4690SOL     OW15510   0.651   0.182   9.935 -0.2812 -0.0047  0.4335
 4690SOL    HW115511   0.692   0.214   9.855 -0.4853  0.4676  0.5170
 4690SOL    HW215512   0.648   0.258   9.993  0.3347 -0.4676  1.0841
 4691SOL     OW15513   1.582   6.876  12.330 -0.2234 -0.7306 -0.6158
 4691SOL    HW115514   1.598   6.915  12.416 -3.3524 -0.4079 -0.0747
 4691SOL    HW215515   1.662   6.827  12.311  0.2176 -1.6703  2.9625
 4692SOL     OW15516   4.264   6.152   8.109  0.1286  0.0132  0.6350
 4692SOL    HW115517   4.297   6.219   8.050  0.4694  0.9413  1.8342
 4692SOL    HW215518   4.221   6.088   8.052  1.2641  0.3819 -0.6702
 4693SOL     OW15519   7.342   3.071  10.473  0.0718 -0.4542 -0.1393
 4693SOL    HW115520   7.383   2.995  10.514 -0.9348 -1.3251 -0.6612
 4693SOL    HW215521   7.259   3.082  10.521  0.3146  0.4700  0.0835
 4694SOL     OW15522   4.237   7.607   0.559  0.3668  0.3071 -0.1224
 4694SOL    HW115523   4.166   7.573   0.613 -0.6611  1.8923 -0.4197
 4694SOL    HW215524   4.196   7.632   0.477  1.8292 -1.6345 -1.5629
 4695SOL     OW15525   5.721   1.922   2.467  0.3962  0.2591  0.6167
 4695SOL    HW115526   5.724   1.948   2.375 -2.7081  2.1900  0.8964
 4695SOL    HW215527   5.790   1.972   2.509  0.4026  1.0672 -0.3302
 4696SOL     OW15528   6.379   3.896  10.275 -0.2701  0.3831  0.2001
 4696SOL    HW115529   6.398   3.808  10.243  0.2146  0.8098 -0.7213
 4696SOL    HW215530   6.322   3.935  10.208 -1.2712  0.4577  1.0587
 4697SOL     OW15531   4.690   5.978   4.432 -0.1300 -0.2338 -0.4053
 4697SOL    HW115532   4.624   5.911   4.453  1.3613 -0.7268  3.7447
 4697SOL    HW215533   4.649   6.060   4.458 -0.8840  0.2158 -2.7706
 4698SOL     OW15534   3.977   4.524   2.087 -0.1950 -0.0135 -0.0155
 4698SOL    HW115535   3.933   4.464   2.146 -1.9239  0.9298 -0.2837
 4698SOL    HW215536   4.019   4.467   2.022 -0.9825 -0.9544  0.2826
 4699SOL     OW15537   4.593   1.241   8.767  0.2991 -0.2821  0.3492
 4699SOL    HW115538   4.524   1.308   8.769  0.6945  0.1845 -1.0586
 4699SOL    HW215539   4.604   1.216   8.859 -0.9553  0.4460  0.7224
 4700SOL     OW15540   1.431   3.260   3.279  0.5223  0.6133 -0.2162
 4700SOL    HW115541   1.513   3.230   3.319  0.6530 -1.8039 -2.1083
 4700SOL    HW215542   1.363   3.210   3.324 -0.1708  3.3556  2.0811
 4701SOL     OW15543   0.614   2.612   8.876 -0.4695  0.3016  0.6665
 4701SOL    HW115544   0.613   2.518   8.895 -2.0091 -0.1781 -1.4081
 4701SOL    HW215545   0.704   2.639   8.894 -0.3741 -1.1794  2.8500
 4702SOL     OW15546   2.713   4.468   4.899 -0.2457 -0.6860 -0.0370
 4702SOL    HW115547   2.716   4.512   4.814  0.9944 -0.0389  0.3125
 4702SOL    HW215548   2.646   4.401   4.890 -1.6428  0.7633 -0.8444
 4703SOL     OW15549   5.385   2.492   9.039 -0.0597  0.1315 -0.0321
 4703SOL    HW115550   5.422   2.543   8.967 -1.0191  0.0490 -0.6178
 4703SOL    HW215551   5.293   2.519   9.041 -0.5753 -1.4998 -0.3150
 4704SOL     OW15552   1.734   7.911   4.254 -0.3598  0.4791  0.0003
 4704SOL    HW115553   1.733   7.820   4.285  0.7286  0.7541  0.9323
 4704SOL    HW215554   1.783   7.907   4.171 -0.6079  0.1712 -0.1333
 4705SOL     OW15555   7.346   3.589   2.246 -0.3008 -0.2509  0.0138
 4705SOL    HW115556   7.357   3.658   2.180  2.1181 -1.1409 -0.6386
 4705SOL    HW215557   7.257   3.557   2.232 -0.0994  0.0304 -2.4391
 4706SOL     OW15558   2.151   4.908  12.062  0.2295 -0.5359 -0.4752
 4706SOL    HW115559   2.207   4.894  12.138 -0.0889 -2.9712 -0.6054
 4706SOL    HW215560   2.096   4.830  12.058 -1.5501  0.6922 -1.7287
 4707SOL     OW15561   1.881   4.259   0.702  0.8235  0.0479  0.4674
 4707SOL    HW115562   1.802   4.212   0.676  0.2986  0.3760  1.4106
 4707SOL    HW215563   1.924   4.202   0.765  0.4849  0.5491  1.1758
 4708SOL     OW15564   1.152   3.575   5.895  0.5128  0.1051  0.0369
 4708SOL    HW115565   1.119   3.599   5.982 -0.7412 -0.7633 -0.1553
 4708SOL    HW215566   1.129   3.482   5.886  0.8103  0.1285 -1.1388
 4709SOL     OW15567   2.899   0.404  11.587 -0.1843 -0.9122  0.0026
 4709SOL    HW115568   2.868   0.313  11.584 -0.0161 -1.1788  3.3329
 4709SOL    HW215569   2.990   0.397  11.616  0.1156  0.3184 -0.5760
 4710SOL     OW15570   2.603   6.508   4.254 -0.3368 -0.5599  0.3159
 4710SOL    HW115571   2.603   6.426   4.204  1.9472 -0.9366  0.8044
 4710SOL    HW215572   2.682   6.554   4.224 -1.4476  1.4022  0.2131
 4711SOL     OW15573   0.492   5.310   4.824 -0.2133 -0.0849 -0.0519
 4711SOL    HW115574   0.565   5.292   4.883  0.2471  0.9100 -0.3060
 4711SOL    HW215575   0.494   5.237   4.762  0.2420 -0.3346  0.2446
 4712SOL     OW15576   4.458   2.228   4.141 -0.3027  0.0996 -0.1365
 4712SOL    HW115577   4.450   2.323   4.137 -1.0176 -0.0020 -2.3659
 4712SOL    HW215578   4.532   2.207   4.083  0.4590 -0.6691  1.0607
 4713SOL     OW15579   3.851   5.567   8.390 -0.0277  0.4885 -0.2628
 4713SOL    HW115580   3.836   5.604   8.477  1.4651  0.8871 -0.1419
 4713SOL    HW215581   3.943   5.539   8.392 -0.2095 -0.2426 -1.4463
 4714SOL     OW15582   0.469   5.386   5.660 -0.3148 -0.2395 -0.6602
 4714SOL    HW115583   0.377   5.388   5.632 -0.9575 -1.5246  1.1844
 4714SOL    HW215584   0.466   5.402   5.754  1.2306 -1.5807 -0.3392
 4715SOL     OW15585   6.624   5.720   4.647 -0.2934 -0.2714  0.7176
 4715SOL    HW115586   6.599   5.649   4.706  0.0056 -0.8350  0.1830
 4715SOL    HW215587   6.719   5.728   4.657 -0.1996 -0.5621  0.1209
 4716SOL     OW15588   3.083   0.206   8.415 -0.2201 -0.1224 -0.0095
 4716SOL    HW115589   3.034   0.238   8.491  1.0131  0.8650  0.3952
 4716SOL    HW215590   3.077   0.277   8.351 -1.9711 -1.2824 -1.2245
 4717SOL     OW15591   1.602   4.555   4.672 -0.1650  0.5311 -0.1096
 4717SOL    HW115592   1.552   4.632   4.643  0.6209  1.5742  1.1918
 4717SOL    HW215593   1.632   4.514   4.591 -1.9398  0.6566 -0.8814
 4718SOL     OW15594   4.016   2.557   6.781 -0.4255  0.0257  0.1901
 4718SOL    HW115595   4.106   2.525   6.784 -0.6158 -0.4628  1.0787
 4718SOL    HW215596   4.025   2.650   6.760  0.2661 -0.0925 -0.0709
 4719SOL     OW15597   6.137   0.792   6.687  0.0835  0.1748 -0.0738
 4719SOL    HW115598   6.074   0.863   6.702 -0.0994 -0.0194  0.0798
 4719SOL    HW215599   6.222   0.836   6.684  0.0834  0.2828  1.0999
 4720SOL     OW15600   5.552   3.403   5.624 -0.5625  0.0057 -0.8654
 4720SOL    HW115601   5.485   3.427   5.688 -1.8304 -2.0715 -1.3408
 4720SOL    HW215602   5.603   3.335   5.667 -0.4515 -0.3054 -1.4831
 4721SOL     OW15603   5.618   3.295   6.447 -0.6507  0.6404  1.0038
 4721SOL    HW115604   5.694   3.249   6.412 -1.7955  0.8505 -2.0394
 4721SOL    HW215605   5.570   3.228   6.496 -0.8199 -0.7413 -0.9437
 4722SOL     OW15606   5.088   4.647   4.875 -0.1978  0.1192 -0.7887
 4722SOL    HW115607   5.021   4.625   4.940  1.1467 -0.1884  0.5482
 4722SOL    HW215608   5.110   4.739   4.893 -1.8672  0.9657 -2.7517
 4723SOL     OW15609   2.070   7.548  11.679  0.0704 -0.0051 -0.1693
 4723SOL    HW115610   2.125   7.476  11.710  1.1002  1.1167  0.7471
 4723SOL    HW215611   2.115   7.627  11.710 -0.3977  1.0916 -2.1346
 4724SOL     OW15612   4.359   7.311   1.939  0.2443  0.0554  0.4772
 4724SOL    HW115613   4.301   7.387   1.935 -1.3949 -1.0884  1.2890
 4724SOL    HW215614   4.433   7.340   1.992 -0.1580  1.1970  0.4520
 4725SOL     OW15615   3.577   4.044  11.835 -0.3070 -0.0453  0.1996
 4725SOL    HW115616   3.617   3.987  11.769 -1.5434  0.1732 -0.7949
 4725SOL    HW215617   3.650   4.078  11.886  0.6633 -0.4886 -0.8614
 4726SOL     OW15618   4.425   2.962   9.706 -0.1271 -0.3962  0.3041
 4726SOL    HW115619   4.374   2.979   9.627  1.2626 -1.3154 -0.8278
 4726SOL    HW215620   4.430   2.867   9.712  0.5479 -0.3278  0.9883
 4727SOL     OW15621   2.752   3.906   2.574  0.1560 -0.1877  0.3119
 4727SOL    HW115622   2.669   3.864   2.550 -1.3827  1.1566  2.7727
 4727SOL    HW215623   2.811   3.887   2.501 -2.0159 -2.0042 -1.1157
 4728SOL     OW15624   5.225   5.279   1.707 -0.3862  0.4859 -0.1696
 4728SOL    HW115625   5.180   5.299   1.624 -1.1003  2.6143  0.6394
 4728SOL    HW215626   5.155   5.279   1.772  0.3466  0.3496  0.6331
 4729SOL     OW15627   1.732   3.804   8.370  0.1676 -0.0661 -0.6233
 4729SOL    HW115628   1.754   3.752   8.292  0.5356  2.1343 -2.0634
 4729SOL    HW215629   1.636   3.807   8.369  0.1174 -1.1310 -0.2163
 4730SOL     OW15630   7.593   4.299   8.957  0.0797 -0.2715 -0.3586
 4730SOL    HW115631   7.637   4.273   8.876  0.8017  0.4226 -0.1989
 4730SOL    HW215632   7.522   4.235   8.968 -2.0191  1.3465 -3.1501
 4731SOL     OW15633   0.523   4.685   4.449 -1.1063 -0.2861 -0.0547
 4731SOL    HW115634   0.486   4.638   4.523 -0.4346 -1.0057 -0.1590
 4731SOL    HW215635   0.610   4.712   4.480 -0.4079 -1.4827 -0.9107
 4732SOL     OW15636   6.759   7.927   2.115 -0.2334 -0.6787 -0.0420
 4732SOL    HW115637   6.838   7.886   2.150 -0.8198 -0.4769  1.6122
 4732SOL    HW215638   6.733   7.871   2.042  1.3743 -0.7894 -0.5516
 4733SOL     OW15639   3.993   7.685   9.021 -0.1504 -0.9497 -0.5674
 4733SOL    HW115640   4.055   7.641   9.080  1.3941  0.3851 -1.1076
 4733SOL    HW215641   4.047   7.710   8.946 -1.3023  0.4765 -0.9500
 4734SOL     OW15642   1.606   2.130   4.510  0.5068 -0.0058 -0.8877
 4734SOL    HW115643   1.551   2.177   4.448 -0.9567  1.4351  1.3358
 4734SOL    HW215644   1.594   2.177   4.593  2.0676 -2.0166  0.5982
 4735SOL     OW15645   1.292   3.775  11.738  0.2676 -0.5117  0.1303
 4735SOL    HW115646   1.293   3.829  11.658  0.2672  0.0073  0.4781
 4735SOL    HW215647   1.207   3.731  11.735 -0.3847  0.6522  0.5930
 4736SOL     OW15648   3.087   0.249  11.373 -0.1893 -0.7043  0.2072
 4736SOL    HW115649   3.163   0.288  11.417  0.3014 -1.7705  0.3385
 4736SOL    HW215650   3.078   0.162  11.412 -1.7681 -0.4382  0.5084
 4737SOL     OW15651   6.499   6.233  10.472  0.5386 -0.5583  0.6006
 4737SOL    HW115652   6.522   6.187  10.391  1.0151  0.7188 -0.0127
 4737SOL    HW215653   6.546   6.316  10.467  0.1927 -0.2502  1.9719
 4738SOL     OW15654   0.089   1.057  10.165  0.4705 -0.1979  0.3402
 4738SOL    HW115655   0.032   1.090  10.095  1.9842 -0.4288 -1.0871
 4738SOL    HW215656   0.063   0.966  10.176  1.0444 -0.5356 -0.8781
 4739SOL     OW15657   4.880   4.921   6.970  0.3009 -0.0710  0.2128
 4739SOL    HW115658   4.849   4.864   7.040  2.9047  1.5023  2.9251
 4739SOL    HW215659   4.832   5.003   6.983  0.2016 -0.0264 -0.4063
 4740SOL     OW15660   3.901   2.713   3.476  0.1811 -0.0799 -0.0899
 4740SOL    HW115661   3.866   2.749   3.558 -2.3416  0.2172 -1.2061
 4740SOL    HW215662   3.939   2.789   3.431  0.1279  0.0656  0.1108
 4741SOL     OW15663   2.024   7.872   7.863 -0.3959 -0.1955 -0.2134
 4741SOL    HW115664   1.962   7.877   7.791  0.0443 -1.1493 -0.6880
 4741SOL    HW215665   2.090   7.938   7.843 -0.8731  0.3368 -0.0692
 4742SOL     OW15666   0.618   2.895   0.133 -0.2919  0.0815  0.1460
 4742SOL    HW115667   0.713   2.891   0.145 -0.4112 -0.8112  0.9068
 4742SOL    HW215668   0.583   2.911   0.221 -0.8605  0.1090 -0.0807
 4743SOL     OW15669   3.808   7.684   4.231 -0.6060  0.5047 -0.3072
 4743SOL    HW115670   3.781   7.652   4.145  0.9559 -2.0233  0.0281
 4743SOL    HW215671   3.897   7.650   4.241 -1.3064 -0.6660  2.9376
 4744SOL     OW15672   3.138   2.370   3.949  0.5714 -0.0066  0.0336
 4744SOL    HW115673   3.072   2.395   4.014 -0.6474 -1.4864 -0.5728
 4744SOL    HW215674   3.151   2.276   3.962  2.9717  0.3011  0.4433
 4745SOL     OW15675   6.653   6.142   5.091 -0.4159  0.1996 -0.6762
 4745SOL    HW115676   6.607   6.148   5.007 -1.8898  0.1998  0.1054
 4745SOL    HW215677   6.610   6.207   5.146 -0.4751 -0.8355  0.5378
 4746SOL     OW15678   5.661   5.447   5.440  0.5279  0.5546 -0.5884
 4746SOL    HW115679   5.565   5.452   5.450  0.6996  2.4073  0.7540
 4746SOL    HW215680   5.691   5.409   5.522  0.9749  0.1762 -0.9228
 4747SOL     OW15681   6.383   5.859   7.737  0.4650 -0.5909 -0.3452
 4747SOL    HW115682   6.365   5.821   7.823  1.1602 -1.0365 -0.3885
 4747SOL    HW215683   6.308   5.915   7.719 -0.2916 -1.4755 -0.0097
 4748SOL     OW15684   5.604   1.099  11.937  0.3854  0.4185 -0.1651
 4748SOL    HW115685   5.525   1.153  11.933 -0.8532 -1.2051  1.0270
 4748SOL    HW215686   5.590   1.042  12.012  2.7702  0.1429  0.1629
 4749SOL     OW15687   7.165   3.918  12.421  0.1068  0.3189  0.5057
 4749SOL    HW115688   7.128   3.951  12.339 -0.5547  1.3970  1.2150
 4749SOL    HW215689   7.243   3.972  12.436  0.2029  0.1510  0.6134
 4750SOL     OW15690   7.330   7.306   2.884  0.2243  0.2801 -0.2421
 4750SOL    HW115691   7.317   7.399   2.903 -0.4782 -0.1479  1.6038
 4750SOL    HW215692   7.270   7.261   2.944  0.8159 -1.3824 -0.8419
 4751SOL     OW15693   2.519   4.575   8.394 -0.4132  0.1536 -0.2344
 4751SOL    HW115694   2.569   4.509   8.346  0.1634 -0.1639  0.7758
 4751SOL    HW215695   2.428   4.560   8.369 -0.2621 -0.8765 -0.1976
 4752SOL     OW15696   2.620   2.813   1.467  0.4213 -0.1781  0.1104
 4752SOL    HW115697   2.545   2.872   1.477  0.5969 -0.0788  0.9608
 4752SOL    HW215698   2.586   2.728   1.493  0.3116 -0.3474 -0.5866
 4753SOL     OW15699   1.037   3.256   1.473 -0.1682  0.8620 -0.6971
 4753SOL    HW115700   1.092   3.332   1.494  1.1352  0.1342 -1.3500
 4753SOL    HW215701   0.990   3.237   1.554  3.0160 -0.4783  1.0406
 4754SOL     OW15702   2.560   0.055   7.653 -0.1572 -0.8506 -0.1678
 4754SOL    HW115703   2.620   0.024   7.720 -1.8197 -0.9662  1.3608
 4754SOL    HW215704   2.555  -0.017   7.590  2.3806 -0.2502 -1.1806
 4755SOL     OW15705   5.028   5.350   6.283  0.3286 -0.1508  0.1819
 4755SOL    HW115706   5.109   5.360   6.233 -0.4164  0.2688 -0.9899
 4755SOL    HW215707   4.989   5.270   6.248 -0.8730  0.8735 -0.9527
 4756SOL     OW15708   1.488   3.470   8.279  0.5079 -0.1480  0.0478
 4756SOL    HW115709   1.529   3.516   8.352  0.1323  1.6207 -0.8215
 4756SOL    HW215710   1.556   3.409   8.248  1.2118  0.2022  0.8734
 4757SOL     OW15711   7.642   4.017   9.823 -0.0723 -0.3566  0.5991
 4757SOL    HW115712   7.735   4.039   9.819  0.4447 -2.3987  0.0218
 4757SOL    HW215713   7.611   4.028   9.734  0.2862 -2.1143  0.2144
 4758SOL     OW15714   1.360   5.802   6.169  0.3487  0.4153  0.3350
 4758SOL    HW115715   1.313   5.752   6.236  2.2713 -0.5511  1.0695
 4758SOL    HW215716   1.404   5.735   6.116 -0.2729  1.2129 -1.2430
 4759SOL     OW15717   7.473   4.033   6.893  0.4356 -0.0936 -0.9402
 4759SOL    HW115718   7.515   4.072   6.970 -0.9102 -1.3031  0.4675
 4759SOL    HW215719   7.436   4.108   6.846  0.7923  0.6327 -0.1027
 4760SOL     OW15720   2.918   2.821   0.304 -0.2339 -0.3990 -0.0952
 4760SOL    HW115721   3.009   2.840   0.283 -0.8816  0.5396 -2.2598
 4760SOL    HW215722   2.881   2.785   0.223 -1.3837 -2.4503  1.2426
 4761SOL     OW15723   5.078   6.527  11.971  0.3348  0.0815  0.4468
 4761SOL    HW115724   5.111   6.459  11.912  0.2780  0.1056  0.3880
 4761SOL    HW215725   4.990   6.498  11.995  0.9519 -0.7503  1.8008
 4762SOL     OW15726   0.828   5.628   7.194  0.2055 -0.0913 -0.0186
 4762SOL    HW115727   0.908   5.591   7.232 -0.1043 -1.2460 -0.4340
 4762SOL    HW215728   0.757   5.592   7.247 -0.1123 -0.1454 -0.4679
 4763SOL     OW15729   2.384   7.879  10.938 -0.5990  0.3169 -0.5161
 4763SOL    HW115730   2.471   7.854  10.907 -0.3414  0.2381  0.2478
 4763SOL    HW215731   2.375   7.971  10.914  1.0316  1.3131  2.2244
 4764SOL     OW15732   5.354   2.869   2.825  0.6402 -0.3335 -0.3314
 4764SOL    HW115733   5.370   2.938   2.760 -0.8039  0.8985  0.5470
 4764SOL    HW215734   5.416   2.800   2.803 -0.2492 -0.2796 -3.4814
 4765SOL     OW15735   7.284   0.998   1.629 -0.5579  0.2560 -0.2005
 4765SOL    HW115736   7.206   0.978   1.680  0.2492  0.4245  1.1706
 4765SOL    HW215737   7.339   1.049   1.689 -0.0894  1.5802 -1.6763
 4766SOL     OW15738   6.780   3.032   1.613  0.1668 -0.4323 -0.1288
 4766SOL    HW115739   6.793   3.123   1.638  0.7242 -1.0616  2.1656
 4766SOL    HW215740   6.865   2.991   1.626 -0.3217 -1.4751 -0.0516
 4767SOL     OW15741   1.248   4.376   7.126 -0.2912 -0.0739 -0.1646
 4767SOL    HW115742   1.256   4.471   7.134 -1.6615  0.0889 -0.3781
 4767SOL    HW215743   1.288   4.354   7.043 -0.1477  0.3493 -0.2061
 4768SOL     OW15744   2.619   2.440  10.894  0.1071 -0.0074 -0.5276
 4768SOL    HW115745   2.612   2.459  10.988 -0.7271  0.6254 -0.7015
 4768SOL    HW215746   2.704   2.475  10.869  0.3252 -0.1582 -0.0097
 4769SOL     OW15747   3.005   1.371  10.115  0.1027  0.0087  0.1274
 4769SOL    HW115748   2.977   1.317  10.189  0.7544  1.3072  1.3640
 4769SOL    HW215749   2.925   1.385  10.064 -0.2819 -1.2139  0.3516
 4770SOL     OW15750   2.476   2.892   6.714 -0.1715 -0.4161  0.4637
 4770SOL    HW115751   2.563   2.891   6.674 -0.4180  1.6275 -0.2451
 4770SOL    HW215752   2.487   2.848   6.798  0.9086 -2.6353 -0.7583
 4771SOL     OW15753   3.974   4.400   9.379  0.4393 -0.4996  0.2679
 4771SOL    HW115754   3.916   4.462   9.335 -0.8316 -1.3044  0.7624
 4771SOL    HW215755   4.048   4.389   9.319  1.8380  3.0807  1.0546
 4772SOL     OW15756   5.485   2.280   3.154 -0.3262 -0.8681  0.1269
 4772SOL    HW115757   5.488   2.205   3.094 -0.0190  0.1686 -1.2180
 4772SOL    HW215758   5.395   2.312   3.148  0.2963  0.7439 -1.8083
 4773SOL     OW15759   7.436   0.804   6.151 -0.1904 -0.4879 -0.0614
 4773SOL    HW115760   7.484   0.837   6.074  1.8102 -0.6826  1.0200
 4773SOL    HW215761   7.344   0.823   6.132  0.3877  0.8877 -1.8061
 4774SOL     OW15762   7.034   6.611   4.302 -0.3286  0.4132 -0.6192
 4774SOL    HW115763   6.961   6.658   4.342 -0.7304  0.0367 -0.8986
 4774SOL    HW215764   7.018   6.618   4.208  0.6350  1.3379 -0.7335
 4775SOL     OW15765   3.150   0.715   8.931 -0.3605  0.2437 -0.2630
 4775SOL    HW115766   3.077   0.657   8.953  1.6432 -2.0397  0.9723
 4775SOL    HW215767   3.178   0.751   9.015  0.2623  0.6504 -0.6343
 4776SOL     OW15768   0.179   0.694  12.122  0.3091  0.0744 -0.1308
 4776SOL    HW115769   0.149   0.677  12.211  1.8781 -1.2387  0.2006
 4776SOL    HW215770   0.211   0.784  12.125 -0.3970  0.3142  0.4118
 4777SOL     OW15771   4.286   1.639   4.120  0.2113 -0.2669 -0.2275
 4777SOL    HW115772   4.288   1.552   4.159 -2.4047 -0.3857 -0.1911
 4777SOL    HW215773   4.331   1.695   4.183 -1.8789 -0.8714  1.9404
 4778SOL     OW15774   3.152   7.031   7.646 -0.1412 -0.2182 -0.6791
 4778SOL    HW115775   3.090   7.016   7.573 -0.4077 -1.4919 -0.2242
 4778SOL    HW215776   3.159   6.945   7.688 -0.9847  0.7674  1.5863
 4779SOL     OW15777   7.818   0.052  10.660 -0.0501  0.1967 -0.1242
 4779SOL    HW115778   7.766  -0.026  10.642  1.8756 -0.8267 -1.5924
 4779SOL    HW215779   7.903   0.018  10.689  0.9490  1.7105 -1.1327
 4780SOL     OW15780   5.643   0.366   5.934 -0.5068 -0.0433 -0.1221
 4780SOL    HW115781   5.654   0.448   5.981  1.3149 -1.0251  1.3112
 4780SOL    HW215782   5.606   0.306   5.998 -0.1648 -0.8091 -0.6285
 4781SOL     OW15783   1.555   3.568   2.585  0.2836 -0.0601 -0.7506
 4781SOL    HW115784   1.597   3.610   2.510 -0.2476  2.7012  0.3835
 4781SOL    HW215785   1.461   3.570   2.565  0.3099 -2.7722 -1.5923
 4782SOL     OW15786   7.635   0.209   4.715  0.0804 -0.7021  0.1448
 4782SOL    HW115787   7.622   0.148   4.788 -2.4181  0.2069  0.5696
 4782SOL    HW215788   7.589   0.168   4.642  1.0304 -0.7475 -0.4416
 4783SOL     OW15789   3.930   1.313   0.403  0.1237  0.5885 -0.3827
 4783SOL    HW115790   3.955   1.402   0.425 -1.7862  1.2230 -0.5529
 4783SOL    HW215791   3.862   1.324   0.335 -0.0759 -0.9850 -0.4680
 4784SOL     OW15792   3.959   7.667   0.765  0.4416  0.2964 -0.3779
 4784SOL    HW115793   3.938   7.645   0.674  0.4553  0.5066 -0.4323
 4784SOL    HW215794   4.007   7.590   0.798  0.7074  0.3468 -0.6417
 4785SOL     OW15795   6.828   2.100   1.864  0.0792 -0.1726 -0.1174
 4785SOL    HW115796   6.922   2.083   1.871 -0.3791 -2.9857  0.5566
 4785SOL    HW215797   6.816   2.137   1.777  1.9943  2.2486  0.5382
 4786SOL     OW15798   4.668   1.455  12.410 -0.5591 -0.0058  0.1543
 4786SOL    HW115799   4.584   1.473  12.368 -1.0907 -0.8563  0.8189
 4786SOL    HW215800   4.728   1.435  12.338 -1.3085 -0.8721 -0.2370
 4787SOL     OW15801   2.255   4.719   6.843 -0.0749  0.7209  0.6737
 4787SOL    HW115802   2.344   4.746   6.820 -0.5115  0.5129 -1.5458
 4787SOL    HW215803   2.202   4.798   6.832 -0.3292  0.5894  0.9278
 4788SOL     OW15804   2.326   7.110  11.074 -0.3884 -1.1486 -0.0789
 4788SOL    HW115805   2.322   7.160  10.992  0.9269 -1.7341 -0.5237
 4788SOL    HW215806   2.235   7.084  11.090 -1.1855  1.6312  0.3575
 4789SOL     OW15807   0.201   3.526  10.381 -0.6263  0.6392  0.0254
 4789SOL    HW115808   0.128   3.495  10.326 -0.5370  0.4853 -0.0064
 4789SOL    HW215809   0.215   3.617  10.354 -0.7268  0.6311 -0.0537
 4790SOL     OW15810   5.386   3.361   3.818  0.3073 -0.5172 -0.1364
 4790SOL    HW115811   5.363   3.294   3.882 -2.1519  3.1314  3.2911
 4790SOL    HW215812   5.312   3.363   3.757  0.6984 -1.2770 -0.6511
 4791SOL     OW15813   1.810   6.479   8.424 -0.0364 -0.0968  0.3248
 4791SOL    HW115814   1.803   6.400   8.370  0.8857 -0.2614  0.4335
 4791SOL    HW215815   1.723   6.490   8.461  0.0283 -1.5369  0.9685
 4792SOL     OW15816   4.710   7.570   7.460  0.8920 -0.5234 -0.2538
 4792SOL    HW115817   4.617   7.587   7.477  1.3117 -0.3243  2.2192
 4792SOL    HW215818   4.728   7.489   7.509  2.1993 -0.0997  0.0026
 4793SOL     OW15819   3.943   5.273  11.229 -0.3101  0.8461  0.0747
 4793SOL    HW115820   3.986   5.355  11.251  0.9540  0.3513 -0.4804
 4793SOL    HW215821   3.905   5.288  11.142 -0.4219  0.9596  0.1426
 4794SOL     OW15822   1.742   0.771   5.116 -0.0812  0.7674 -0.4786
 4794SOL    HW115823   1.728   0.862   5.139  0.3889  0.1795  2.4859
 4794SOL    HW215824   1.833   0.754   5.140 -0.8025 -1.0253  1.3021
 4795SOL     OW15825   2.861   2.599   2.470 -0.0450  0.3940  0.7534
 4795SOL    HW115826   2.903   2.685   2.476 -2.5893  1.8858 -0.7662
 4795SOL    HW215827   2.793   2.610   2.402 -2.1468 -2.0750  2.2526
 4796SOL     OW15828   6.866   5.904   3.226  0.4203 -0.3807  0.8268
 4796SOL    HW115829   6.864   5.969   3.297  0.2185  0.7423 -0.1845
 4796SOL    HW215830   6.959   5.889   3.210  0.4853  0.4786  0.3467
 4797SOL     OW15831   2.131   4.332   8.871  0.3203  0.1926 -0.2101
 4797SOL    HW115832   2.167   4.251   8.836  1.1437  0.1957  0.5806
 4797SOL    HW215833   2.133   4.320   8.966 -0.5106  0.7377 -0.1090
 4798SOL     OW15834   5.173   4.870   8.051  0.4586  0.5827 -0.4527
 4798SOL    HW115835   5.151   4.804   7.984  1.9775 -2.3479  1.6955
 4798SOL    HW215836   5.095   4.926   8.056 -0.5985 -0.4893 -3.0025
 4799SOL     OW15837   2.463   7.080   7.634 -0.1722 -0.1746  0.1742
 4799SOL    HW115838   2.495   6.991   7.621  0.4587  0.0447  0.2044
 4799SOL    HW215839   2.415   7.101   7.553 -0.9578 -0.7989  0.4640
 4800SOL     OW15840   0.237   4.498   5.460  0.9809 -0.6053  0.1744
 4800SOL    HW115841   0.327   4.499   5.428  0.7646 -1.8385 -0.5619
 4800SOL    HW215842   0.238   4.440   5.536  0.6727 -1.4157 -0.4077
 4801SOL     OW15843   3.089   0.403  10.428  0.4891  0.2018 -0.4220
 4801SOL    HW115844   3.179   0.431  10.446  0.5596  1.1625 -2.0723
 4801SOL    HW215845   3.069   0.439  10.342 -1.3669 -0.3068 -0.2545
 4802SOL     OW15846   2.674   2.478   3.622  0.8953 -0.1373  0.0013
 4802SOL    HW115847   2.730   2.425   3.678  1.7030 -0.5424 -1.1410
 4802SOL    HW215848   2.633   2.542   3.681  2.4540  0.0810  0.8950
 4803SOL     OW15849   5.558   1.566   1.771  0.1687  0.1191 -0.1357
 4803SOL    HW115850   5.481   1.510   1.777 -1.2397  1.9988  0.3947
 4803SOL    HW215851   5.563   1.610   1.856  1.6788  0.2417 -0.2609
 4804SOL     OW15852   0.771   3.594   8.141 -0.4226 -0.1199  0.3977
 4804SOL    HW115853   0.841   3.530   8.156 -1.0388 -0.9036  0.0319
 4804SOL    HW215854   0.692   3.551   8.175 -0.4284  1.6621  2.9993
 4805SOL     OW15855   3.161   1.989  11.369  0.1078 -0.1912  0.1342
 4805SOL    HW115856   3.224   2.029  11.429 -1.1751 -0.1178  1.4889
 4805SOL    HW215857   3.097   2.058  11.353  0.4642 -0.1787 -1.4353
 4806SOL     OW15858   1.998   3.357  11.958 -0.4333  0.2124  0.1291
 4806SOL    HW115859   1.996   3.421  12.029 -1.0254  0.7637 -0.3696
 4806SOL    HW215860   1.911   3.317  11.959 -2.0856  3.2105 -2.9110
 4807SOL     OW15861   7.946   0.197   6.335 -0.7816  0.0930  0.1048
 4807SOL    HW115862   8.028   0.161   6.367 -0.7989  0.2267  0.3024
 4807SOL    HW215863   7.890   0.203   6.412 -0.5337  1.2166  0.2231
 4808SOL     OW15864   2.007   3.968   5.470  0.6146 -0.2496 -0.9077
 4808SOL    HW115865   1.947   4.031   5.431  1.8149  0.2653 -2.0160
 4808SOL    HW215866   2.068   4.021   5.520  0.0930 -0.7769  0.3159
 4809SOL     OW15867   1.296   2.606   1.135  0.2737  0.4699  0.0769
 4809SOL    HW115868   1.285   2.697   1.164 -1.0563  0.6446 -0.8717
 4809SOL    HW215869   1.360   2.611   1.063 -0.8795  0.8948 -0.9540
 4810SOL     OW15870   0.544   5.642   2.489 -0.1417  0.2616  0.0206
 4810SOL    HW115871   0.583   5.610   2.407 -1.1000 -0.4325 -0.1874
 4810SOL    HW215872   0.479   5.706   2.461  0.0601  0.5898  0.2939
 4811SOL     OW15873   5.333   1.100   0.768  0.1054  0.0267  0.4663
 4811SOL    HW115874   5.310   1.070   0.856  0.3587  0.9285  0.8433
 4811SOL    HW215875   5.427   1.113   0.771  0.0643  0.3955  0.1624
 4812SOL     OW15876   0.861   0.291   3.647 -0.0977  0.3875  0.0311
 4812SOL    HW115877   0.916   0.213   3.653 -1.2948 -0.4920  0.1557
 4812SOL    HW215878   0.897   0.352   3.711  0.5911 -0.2480  0.2553
 4813SOL     OW15879   7.037   3.686   3.493  0.4060 -0.8407 -0.1087
 4813SOL    HW115880   6.965   3.745   3.517 -0.5150 -0.8413 -2.5937
 4813SOL    HW215881   7.100   3.742   3.449  0.6903 -1.3048 -0.2965
 4814SOL     OW15882   7.720   3.477   1.328 -0.0637  0.3447  0.0250
 4814SOL    HW115883   7.633   3.514   1.318  0.6051  1.7931 -0.7944
 4814SOL    HW215884   7.766   3.539   1.385  0.8750  0.4284 -0.7966
 4815SOL     OW15885   5.281   0.721   5.482 -0.8192  0.0989  0.6217
 4815SOL    HW115886   5.272   0.771   5.400 -0.4337  1.0710  1.1555
 4815SOL    HW215887   5.239   0.638   5.463  0.0026 -0.0303 -0.8542
 4816SOL     OW15888   7.893   0.767  10.720  0.1765 -0.4603 -0.5530
 4816SOL    HW115889   7.979   0.726  10.715 -0.1590 -1.0152 -2.6025
 4816SOL    HW215890   7.835   0.697  10.751  0.1334 -0.6663 -1.0881
 4817SOL     OW15891   4.213   1.623   6.633 -0.2456 -0.1097 -0.3494
 4817SOL    HW115892   4.229   1.697   6.691  0.2978 -0.4168 -0.0931
 4817SOL    HW215893   4.299   1.582   6.623 -0.3447 -0.0926 -1.3324
 4818SOL     OW15894   2.108   1.321   6.284 -0.1167 -0.1995  0.4196
 4818SOL    HW115895   2.194   1.278   6.282 -1.0045 -2.0652  0.4296
 4818SOL    HW215896   2.115   1.391   6.219  2.3472  1.6912  2.4860
 4819SOL     OW15897   2.653   0.579   0.921 -0.1088 -0.7170 -0.5715
 4819SOL    HW115898   2.581   0.637   0.895  1.5080  0.6407 -2.3562
 4819SOL    HW215899   2.716   0.638   0.964  1.4872 -1.1240 -2.2504
 4820SOL     OW15900   1.184   1.193   7.956  0.2588 -0.4952 -0.1982
 4820SOL    HW115901   1.089   1.193   7.969  0.2410  2.5654  0.2003
 4820SOL    HW215902   1.219   1.150   8.034 -0.7233  0.4641  0.8107
 4821SOL     OW15903   0.669   0.640  10.317  0.2230  0.3200  0.2786
 4821SOL    HW115904   0.739   0.692  10.358  0.6258  0.4779 -0.5914
 4821SOL    HW215905   0.686   0.551  10.346 -0.7981  0.7053  2.2442
 4822SOL     OW15906   6.081   6.919  10.418 -0.5355 -0.2513  0.3502
 4822SOL    HW115907   5.997   6.963  10.432 -0.4715  0.1035 -0.3407
 4822SOL    HW215908   6.080   6.846  10.480 -1.4264 -0.3441  0.2499
 4823SOL     OW15909   2.405   0.994   5.098 -0.3443  0.2270  0.2924
 4823SOL    HW115910   2.317   1.026   5.077  0.3404  2.0912  0.0426
 4823SOL    HW215911   2.438   1.055   5.163  1.5107  0.8432 -1.1342
 4824SOL     OW15912   7.228   6.995   1.617 -0.2995  0.4387 -0.6771
 4824SOL    HW115913   7.181   7.013   1.699 -1.0386  2.2442 -1.4426
 4824SOL    HW215914   7.200   6.907   1.592 -1.0771  0.3797  0.3412
 4825SOL     OW15915   6.748   2.394   5.574 -0.3279 -0.1856  0.3740
 4825SOL    HW115916   6.743   2.320   5.514  3.5119 -0.3169 -0.0246
 4825SOL    HW215917   6.773   2.468   5.520 -1.7852  0.8802  1.1199
 4826SOL     OW15918   7.561   0.827   3.683  0.5864 -0.0875  0.2898
 4826SOL    HW115919   7.618   0.750   3.686 -0.8359 -1.1764  2.2456
 4826SOL    HW215920   7.595   0.885   3.752 -0.2635 -0.4723  1.0527
 4827SOL     OW15921   6.313   1.603   7.587 -0.0016  0.0641 -0.0207
 4827SOL    HW115922   6.350   1.669   7.646 -0.3870  0.0955  0.1880
 4827SOL    HW215923   6.385   1.544   7.569  0.2572  0.3510  0.0666
 4828SOL     OW15924   0.349   2.918  11.783  0.4625 -0.3328  0.1501
 4828SOL    HW115925   0.336   2.896  11.875  0.4117 -0.8880  0.0159
 4828SOL    HW215926   0.441   2.895  11.766  0.6033  0.2066  0.1812
 4829SOL     OW15927   1.258   6.604  12.049 -0.1504  1.0982  0.2603
 4829SOL    HW115928   1.261   6.664  12.123 -1.3769 -0.1088  1.3462
 4829SOL    HW215929   1.206   6.530  12.080 -0.0513  0.2027 -1.5635
 4830SOL     OW15930   2.223   2.648  10.688 -0.3261 -0.4047  0.3845
 4830SOL    HW115931   2.267   2.733  10.678  0.5492 -0.8273  0.4905
 4830SOL    HW215932   2.285   2.585  10.653 -1.1542 -0.9699 -0.0914
 4831SOL     OW15933   1.732   3.012   0.923 -0.3397 -0.4583  0.3473
 4831SOL    HW115934   1.802   2.965   0.877  0.8169  0.1347  1.4311
 4831SOL    HW215935   1.716   2.960   1.002 -1.3393 -0.7288 -0.0129
 4832SOL     OW15936   4.742   0.707   9.365  0.2360 -0.3324  0.5057
 4832SOL    HW115937   4.824   0.687   9.321 -0.5361 -0.7418 -0.8129
 4832SOL    HW215938   4.760   0.694   9.458  2.0925  1.1532  0.4061
 4833SOL     OW15939   0.029   7.396   9.414  0.2612 -0.2286  0.2730
 4833SOL    HW115940  -0.038   7.410   9.348 -0.5504 -0.7971  0.9430
 4833SOL    HW215941   0.109   7.431   9.376 -0.4455  0.5918 -0.4875
 4834SOL     OW15942   0.770   2.989  10.452  0.5177  0.4659  0.7172
 4834SOL    HW115943   0.675   2.988  10.460  0.5952  1.2492  2.2931
 4834SOL    HW215944   0.797   2.900  10.474  0.1882  0.4744  1.1666
 4835SOL     OW15945   2.822   1.444   3.205  0.1458 -0.0788  0.2968
 4835SOL    HW115946   2.733   1.425   3.175 -0.8569  3.2495  0.6888
 4835SOL    HW215947   2.816   1.446   3.300  0.7342 -0.1212  0.3418
 4836SOL     OW15948   4.298   7.902  11.452 -0.1584  0.0099  0.2651
 4836SOL    HW115949   4.238   7.953  11.505 -0.9250 -0.8322  0.2390
 4836SOL    HW215950   4.342   7.967  11.396 -0.6396  0.6977  0.6700
 4837SOL     OW15951   6.214   3.724   9.658  0.2976  0.0495  0.1889
 4837SOL    HW115952   6.262   3.801   9.689  1.9669 -0.1397 -1.7559
 4837SOL    HW215953   6.275   3.678   9.601 -1.2030 -1.8813  0.0128
 4838SOL     OW15954   7.375   1.577   8.974  0.3542 -0.0127  0.2021
 4838SOL    HW115955   7.373   1.526   8.893 -0.7970 -1.3125  1.0114
 4838SOL    HW215956   7.359   1.667   8.946  0.0225 -0.4365 -1.0176
 4839SOL     OW15957   6.771   3.129   8.007 -0.4795 -0.6375 -0.7404
 4839SOL    HW115958   6.766   3.121   8.102 -0.2416 -0.6927 -0.7304
 4839SOL    HW215959   6.837   3.198   7.992 -0.7093 -0.4425 -0.8610
 4840SOL     OW15960   4.090   4.750   9.753  0.0629  0.0633 -0.4123
 4840SOL    HW115961   4.041   4.682   9.706  3.1927 -0.5939 -3.0421
 4840SOL    HW215962   4.157   4.702   9.802  0.0636  1.0757  0.6278
 4841SOL     OW15963   0.069   4.587   1.710  0.3655  0.7748 -0.6209
 4841SOL    HW115964   0.031   4.612   1.795 -0.3419 -0.8534 -0.4294
 4841SOL    HW215965   0.160   4.566   1.731  0.0438 -0.1932 -0.1378
 4842SOL     OW15966   5.851   1.377   9.151  0.3491  0.3716  0.4256
 4842SOL    HW115967   5.864   1.312   9.082 -1.1974 -0.6312  1.0308
 4842SOL    HW215968   5.812   1.452   9.106 -0.8631 -0.3607  0.2210
 4843SOL     OW15969   0.372   7.469   9.122 -0.0789  0.3977  0.1701
 4843SOL    HW115970   0.458   7.498   9.092  1.6366 -1.6180  2.6895
 4843SOL    HW215971   0.367   7.377   9.097 -2.2630  0.8541 -1.3225
 4844SOL     OW15972   3.990   2.205   7.829 -0.0838  0.0620  0.1488
 4844SOL    HW115973   3.905   2.222   7.868 -0.1098 -1.0697  0.6242
 4844SOL    HW215974   4.042   2.283   7.849 -0.8861  0.6063  0.1574
 4845SOL     OW15975   4.571   3.830  10.540 -0.2684  0.3224  0.5943
 4845SOL    HW115976   4.508   3.884  10.492  0.1711  0.8690  0.6225
 4845SOL    HW215977   4.529   3.744  10.546 -1.6758  1.0359  1.8651
 4846SOL     OW15978   3.002   6.191   9.612  0.7216  0.1287  0.1607
 4846SOL    HW115979   2.999   6.129   9.685  2.6366  1.2304  1.2515
 4846SOL    HW215980   3.064   6.152   9.550 -1.6541 -1.3125 -1.4826
 4847SOL     OW15981   3.029   5.456   1.958 -0.1181  0.5814  0.5946
 4847SOL    HW115982   2.981   5.414   2.029  1.7338 -2.8043  0.0389
 4847SOL    HW215983   2.965   5.467   1.888 -0.7377 -1.2807  0.8337
 4848SOL     OW15984   1.176   7.615   0.779  0.2113 -0.4718  0.1488
 4848SOL    HW115985   1.218   7.633   0.863  1.1042 -1.4025 -0.0819
 4848SOL    HW215986   1.214   7.679   0.719  0.6506 -0.7424  0.1354
 4849SOL     OW15987   0.814   7.023   7.153 -0.2902 -0.1681 -0.6458
 4849SOL    HW115988   0.740   6.985   7.106  0.3164 -2.0630 -0.1675
 4849SOL    HW215989   0.884   7.030   7.088 -0.6746  0.9910 -0.9419
 4850SOL     OW15990   5.760   4.482   0.918 -0.2318 -0.1360 -0.2427
 4850SOL    HW115991   5.787   4.438   0.837 -0.9663 -0.6906 -0.1928
 4850SOL    HW215992   5.668   4.505   0.903  0.1969  1.6824 -0.3959
 4851SOL     OW15993   0.631   2.936   8.754  0.2572  0.1071  0.2500
 4851SOL    HW115994   0.715   2.975   8.733 -0.6952  0.6673 -3.1238
 4851SOL    HW215995   0.579   3.009   8.789  0.7629  0.0303  1.1960
 4852SOL     OW15996   5.170   4.429   5.249 -0.1294  0.0915  0.4253
 4852SOL    HW115997   5.231   4.469   5.187 -1.6506 -2.1304 -2.7711
 4852SOL    HW215998   5.089   4.480   5.240 -0.6093 -0.7308 -0.1138
 4853SOL     OW15999   1.063   5.678   2.936 -0.0777  0.2558  0.0122
 4853SOL    HW116000   1.099   5.738   3.002 -0.2723  0.3726  0.0126
 4853SOL    HW216001   0.988   5.637   2.980 -0.6816  0.9087 -0.3985
 4854SOL     OW16002   2.460   1.561   2.715 -0.1358 -0.5712  0.1614
 4854SOL    HW116003   2.432   1.590   2.628 -0.8465 -2.7442 -0.3981
 4854SOL    HW216004   2.555   1.566   2.712 -0.2050  1.5263  0.0902
 4855SOL     OW16005   7.215   0.519   8.584 -0.1891 -0.1037  0.6497
 4855SOL    HW116006   7.217   0.507   8.489 -0.9559 -0.0598  0.6227
 4855SOL    HW216007   7.224   0.430   8.619 -0.3814 -0.1752  0.5237
 4856SOL     OW16008   1.856   6.854  12.197 -0.0713 -0.3619 -0.6244
 4856SOL    HW116009   1.852   6.946  12.170  0.7469 -0.4323 -1.0332
 4856SOL    HW216010   1.883   6.807  12.118  2.4193 -0.5699  0.2630
 4857SOL     OW16011   3.844   6.654   0.218  0.6870 -0.1516  0.4116
 4857SOL    HW116012   3.915   6.644   0.155 -1.2873 -1.2154 -1.8174
 4857SOL    HW216013   3.852   6.744   0.250  3.2627 -0.3792  0.6555
 4858SOL     OW16014   4.885   1.538   6.352 -0.4146  0.1638 -0.0842
 4858SOL    HW116015   4.913   1.629   6.355 -0.2471  0.1323 -0.5133
 4858SOL    HW216016   4.792   1.541   6.329 -0.3790  0.2260 -0.2233
 4859SOL     OW16017   4.739   4.005  10.011  0.0512  0.1301  0.4821
 4859SOL    HW116018   4.718   3.974  10.099  0.5831 -0.2940  0.4640
 4859SOL    HW216019   4.810   3.948   9.982 -0.3720  0.0246 -0.3682
 4860SOL     OW16020   4.852   1.021   6.475  0.4022  0.2563 -0.0978
 4860SOL    HW116021   4.872   0.973   6.395 -0.3161  1.3028 -0.9247
 4860SOL    HW216022   4.797   1.094   6.447  0.5687  0.9512  1.2780
 4861SOL     OW16023   3.797   6.753  10.452  0.2458 -0.5216 -0.0275
 4861SOL    HW116024   3.882   6.748  10.497 -0.8369 -1.7278  2.0512
 4861SOL    HW216025   3.819   6.765  10.360  2.6768 -0.9737  0.4260
 4862SOL     OW16026   6.800   3.678   1.935  0.4013 -0.5841 -0.2643
 4862SOL    HW116027   6.780   3.709   1.847 -1.9453  3.0440  1.3217
 4862SOL    HW216028   6.829   3.756   1.983 -0.7946 -1.8386  2.7682
 4863SOL     OW16029   1.137   2.716  10.148 -0.1788  0.5132 -0.0266
 4863SOL    HW116030   1.133   2.784  10.215 -0.8069  0.9615 -0.4985
 4863SOL    HW216031   1.226   2.720  10.115 -0.7355  2.5970 -1.5004
 4864SOL     OW16032   6.318   4.383   3.438  0.2047 -0.2655  0.0043
 4864SOL    HW116033   6.248   4.407   3.499 -0.0981 -0.5663 -0.2170
 4864SOL    HW216034   6.281   4.310   3.388 -0.3589  1.2942 -1.9651
 4865SOL     OW16035   5.602   6.566   0.161  0.8150  0.0829 -0.1975
 4865SOL    HW116036   5.690   6.553   0.124  1.9016  1.9691  1.5110
 4865SOL    HW216037   5.543   6.553   0.087  2.6614  0.4821 -1.8341
 4866SOL     OW16038   6.467   1.141   7.940 -0.2531  0.3913 -0.2948
 4866SOL    HW116039   6.425   1.094   8.013 -0.0592 -1.7184 -1.4788
 4866SOL    HW216040   6.403   1.208   7.916 -0.7489  0.4796  1.1556
 4867SOL     OW16041   6.361   6.891   7.351  0.6156 -0.5604  0.4325
 4867SOL    HW116042   6.392   6.885   7.261 -1.3404  0.3598 -0.3486
 4867SOL    HW216043   6.278   6.843   7.351 -1.5350  2.8572  0.6347
 4868SOL     OW16044   3.647   0.039   6.368  0.4880 -0.2837  0.1938
 4868SOL    HW116045   3.732   0.013   6.404 -0.3222 -1.6346  1.2530
 4868SOL    HW216046   3.587  -0.029   6.399 -0.9310  0.5031 -0.7492
 4869SOL     OW16047   2.015   1.684   3.865 -0.4714  0.1513 -0.1326
 4869SOL    HW116048   1.980   1.686   3.955 -1.6040 -2.4752 -0.4235
 4869SOL    HW216049   2.101   1.725   3.872 -0.0303 -1.0239  2.4284
 4870SOL     OW16050   6.795   2.087  12.390 -0.0336 -0.2251  0.2545
 4870SOL    HW116051   6.819   2.064  12.301  0.6655  1.8242 -0.1419
 4870SOL    HW216052   6.707   2.050  12.402 -1.5465  2.0883 -2.4513
 4871SOL     OW16053   7.769   0.890   7.757 -0.0924 -0.3392  0.0619
 4871SOL    HW116054   7.729   0.972   7.728  0.0083 -0.3697 -0.1661
 4871SOL    HW216055   7.825   0.864   7.684 -0.5233 -0.8863 -0.0821
 4872SOL     OW16056   0.467   1.401   7.464 -0.2956 -0.3606  0.2599
 4872SOL    HW116057   0.533   1.469   7.449  0.9295 -1.3094  1.1691
 4872SOL    HW216058   0.467   1.350   7.383 -0.1510 -0.1698  0.1386
 4873SOL     OW16059   4.774   7.927   9.102  0.0771  0.1911 -0.5941
 4873SOL    HW116060   4.804   7.892   9.186  0.3164 -2.7135 -1.7850
 4873SOL    HW216061   4.688   7.888   9.088  0.0429  0.6073 -1.6896
 4874SOL     OW16062   7.648   2.080  10.682  0.2935 -0.2158  0.7111
 4874SOL    HW116063   7.671   2.129  10.760 -0.7755 -1.5985  1.9671
 4874SOL    HW216064   7.728   2.080  10.629  1.0267  0.7989  1.7670
 4875SOL     OW16065   4.573   5.131  11.363  0.1849 -0.2007  0.1191
 4875SOL    HW116066   4.602   5.221  11.373  0.0717 -0.0422 -0.9181
 4875SOL    HW216067   4.485   5.129  11.399  0.4613 -0.0751  0.8174
 4876SOL     OW16068   2.778   5.669   1.351 -0.5603 -0.1807 -0.2333
 4876SOL    HW116069   2.762   5.762   1.368  0.6209  0.5111 -2.5406
 4876SOL    HW216070   2.692   5.635   1.325 -0.4517  1.0861 -2.5274
 4877SOL     OW16071   1.671   6.870   7.483  0.0686  0.4953 -0.3012
 4877SOL    HW116072   1.576   6.867   7.475  0.1054 -3.3281 -1.2203
 4877SOL    HW216073   1.688   6.889   7.575 -1.6871 -1.2160  0.4238
 4878SOL     OW16074   4.827   2.605  10.860  0.1014  0.1199  0.0905
 4878SOL    HW116075   4.754   2.544  10.854  0.1268 -0.0005  0.8983
 4878SOL    HW216076   4.834   2.625  10.954  0.2377  1.1911 -0.1370
 4879SOL     OW16077   6.625   1.340  10.010  0.5100 -0.0662  0.1864
 4879SOL    HW116078   6.692   1.336   9.942  1.0297 -0.0014  0.6913
 4879SOL    HW216079   6.670   1.316  10.091 -0.0593  0.0307  0.5433
 4880SOL     OW16080   6.308   5.894   4.122 -0.7128  0.5566 -0.6470
 4880SOL    HW116081   6.347   5.935   4.045 -1.0628 -0.2240 -1.2502
 4880SOL    HW216082   6.214   5.908   4.111 -0.7388  0.7480 -0.1821
 4881SOL     OW16083   3.480   0.560   6.381  0.1279 -0.7247  0.0182
 4881SOL    HW116084   3.439   0.647   6.376  2.4128  0.4970  0.8885
 4881SOL    HW216085   3.468   0.533   6.472  1.8875  0.0582  0.5323
 4882SOL     OW16086   7.090   5.267   1.897  0.1417 -0.0416  0.0096
 4882SOL    HW116087   7.009   5.216   1.898 -0.4439  0.8645 -0.0106
 4882SOL    HW216088   7.131   5.245   1.813 -0.9892  0.8466 -0.8103
 4883SOL     OW16089   7.301   0.316   2.536  0.1341  0.1848 -0.6934
 4883SOL    HW116090   7.354   0.361   2.470 -0.5976  0.8334 -0.8602
 4883SOL    HW216091   7.272   0.386   2.595  1.3277 -0.4618  0.7364
 4884SOL     OW16092   3.197   0.803   9.199 -0.1700  0.1428 -0.3855
 4884SOL    HW116093   3.223   0.736   9.262  0.6214  1.3275  0.5783
 4884SOL    HW216094   3.224   0.886   9.238 -0.4374  0.9869 -1.8906
 4885SOL     OW16095   6.911   0.687   3.950 -0.1574 -0.2999  0.2375
 4885SOL    HW116096   6.840   0.647   3.900  0.1790  0.6525 -1.0592
 4885SOL    HW216097   6.877   0.694   4.039 -1.8961  0.5952 -0.4513
 4886SOL     OW16098   7.823   2.971  11.953  0.0414  0.2578  0.7843
 4886SOL    HW116099   7.747   2.938  12.000  0.2620 -0.9717  0.3207
 4886SOL    HW216100   7.882   3.003  12.022 -1.4563  2.5744  1.0743
 4887SOL     OW16101   7.143   0.770   3.826 -0.0954  0.6598  0.4992
 4887SOL    HW116102   7.106   0.823   3.755 -0.7830  0.0480  0.3905
 4887SOL    HW216103   7.071   0.712   3.853  0.2628  0.6311  1.4498
 4888SOL     OW16104   3.632   2.507  12.229 -0.2232 -0.4255 -0.0181
 4888SOL    HW116105   3.636   2.601  12.211 -3.4545 -0.3887 -1.1047
 4888SOL    HW216106   3.571   2.498  12.302  0.2710 -1.6870  0.2801
 4889SOL     OW16107   4.924   3.266   1.926 -0.0816 -0.1880  0.6466
 4889SOL    HW116108   4.939   3.284   1.833 -0.7743 -3.2592 -0.1769
 4889SOL    HW216109   5.010   3.277   1.967  0.1401  1.6964 -0.2076
 4890SOL     OW16110   5.232   4.642   5.747  0.1729  0.3904 -0.2677
 4890SOL    HW116111   5.275   4.712   5.797  0.1888  0.4065 -0.3029
 4890SOL    HW216112   5.172   4.687   5.688  0.5467  0.4078 -0.6432
 4891SOL     OW16113   0.413   6.733   5.494 -0.4612  0.1945  0.5272
 4891SOL    HW116114   0.508   6.734   5.495 -0.4456 -0.2597  0.2162
 4891SOL    HW216115   0.387   6.779   5.574  0.0059  0.9656  0.2453
 4892SOL     OW16116   2.227   5.591   8.163  0.4485  0.3896 -0.0666
 4892SOL    HW116117   2.257   5.574   8.252 -0.4094 -0.2435  0.1225
 4892SOL    HW216118   2.302   5.569   8.107  0.8447  0.3605  0.4719
 4893SOL     OW16119   4.468   1.475  10.313  0.1439  0.1945 -0.8539
 4893SOL    HW116120   4.476   1.409  10.244 -0.5463 -1.1022  0.2431
 4893SOL    HW216121   4.394   1.529  10.286 -0.0112 -0.1919 -1.2253
 4894SOL     OW16122   2.992   5.977   5.885  0.4239 -0.0261 -0.1368
 4894SOL    HW116123   3.033   5.921   5.818  1.9695  1.8024 -0.7915
 4894SOL    HW216124   2.985   5.920   5.962  2.0630 -1.1223 -0.7332
 4895SOL     OW16125   1.131   1.426   3.950  0.2249  0.5128  0.2669
 4895SOL    HW116126   1.195   1.374   3.899  2.1966  1.7313  1.3635
 4895SOL    HW216127   1.046   1.400   3.915  1.3411 -0.7344 -1.7292
 4896SOL     OW16128   2.475   7.909  12.323  0.1930 -0.3456 -0.2952
 4896SOL    HW116129   2.537   7.910  12.250 -0.6849  0.3104 -1.0558
 4896SOL    HW216130   2.434   7.996  12.321  1.1807  0.2368  1.9068
 4897SOL     OW16131   2.918   7.280   9.332  0.2252  0.2659 -0.5877
 4897SOL    HW116132   2.999   7.287   9.383  0.5301 -0.3933 -0.9645
 4897SOL    HW216133   2.945   7.290   9.241 -0.2496  0.9309 -0.6635
 4898SOL     OW16134   7.178   4.882   0.868  0.1414  0.2796  0.6369
 4898SOL    HW116135   7.137   4.800   0.841 -0.6688  0.4154  1.3931
 4898SOL    HW216136   7.134   4.905   0.950  1.1708  0.8764  1.0325
 4899SOL     OW16137   1.520   2.126   5.369  0.0630 -0.6783 -0.8523
 4899SOL    HW116138   1.540   2.073   5.447  0.1141  0.5309 -0.0217
 4899SOL    HW216139   1.439   2.088   5.334 -0.9458 -0.1422  0.8204
 4900SOL     OW16140   4.341   0.660   4.004  0.0120 -0.3438  0.1761
 4900SOL    HW116141   4.372   0.577   3.968 -2.3540 -1.9507  1.5829
 4900SOL    HW216142   4.388   0.726   3.954  1.7849 -2.4952 -1.2154
 4901SOL     OW16143   5.519   4.843   5.564 -0.7573  0.0114 -0.1873
 4901SOL    HW116144   5.586   4.896   5.520 -0.5732  0.1317  0.2228
 4901SOL    HW216145   5.449   4.905   5.584 -0.6592  0.0464  0.0547
 4902SOL     OW16146   1.267   1.602   4.094 -0.2526 -0.4216  0.1765
 4902SOL    HW116147   1.309   1.525   4.132 -1.7552 -0.4383  1.9473
 4902SOL    HW216148   1.209   1.567   4.026  0.3463 -0.6593 -0.2235
 4903SOL     OW16149   4.238   2.524   4.236  0.2667  0.2177  0.2147
 4903SOL    HW116150   4.287   2.605   4.251  0.0599  0.0580  1.9412
 4903SOL    HW216151   4.267   2.465   4.306 -0.5395 -0.7439 -0.2404
 4904SOL     OW16152   4.465   3.515   5.118 -0.8528  0.1295 -0.7205
 4904SOL    HW116153   4.449   3.437   5.171  0.7367 -0.4278 -0.9971
 4904SOL    HW216154   4.473   3.586   5.182 -1.5083 -0.0631 -0.4122
 4905SOL     OW16155   3.061   6.387  11.032 -0.0132  0.3861 -0.0100
 4905SOL    HW116156   3.124   6.340  11.088  0.7942  0.8932 -0.4730
 4905SOL    HW216157   2.987   6.327  11.024  1.1528 -1.0011 -0.9100
 4906SOL     OW16158   3.167   4.453   7.209  0.1771  0.7527  0.4487
 4906SOL    HW116159   3.239   4.508   7.241  0.0994  1.1044  0.0427
 4906SOL    HW216160   3.197   4.363   7.222 -0.0533  0.8751  1.9312
 4907SOL     OW16161   1.656   2.867   0.377  0.1927 -0.5631  0.5021
 4907SOL    HW116162   1.661   2.961   0.359 -0.2812 -0.8413 -1.2870
 4907SOL    HW216163   1.563   2.851   0.390  0.4668 -0.4559  3.0869
 4908SOL     OW16164   0.927   1.962   0.774  0.0739  0.0508  0.2159
 4908SOL    HW116165   0.885   1.903   0.837  1.1296  0.6043  1.4778
 4908SOL    HW216166   0.906   2.050   0.805 -0.3691  0.3541 -0.8944
 4909SOL     OW16167   2.723   6.240   8.602 -0.4600 -0.1107 -0.0277
 4909SOL    HW116168   2.763   6.185   8.670  0.4743 -2.0259 -2.0066
 4909SOL    HW216169   2.672   6.179   8.549 -1.2589  1.3433 -0.9785
 4910SOL     OW16170   6.237   6.057   7.365  0.4036 -0.4692  0.2604
 4910SOL    HW116171   6.323   6.064   7.406  0.8260 -1.0650 -0.4872
 4910SOL    HW216172   6.185   6.005   7.426  0.4487  0.2176  0.8945
 4911SOL     OW16173   6.008   5.823   0.512 -0.2145 -0.0682 -0.9645
 4911SOL    HW116174   5.940   5.773   0.558  0.7493 -2.1699 -1.7092
 4911SOL    HW216175   6.062   5.860   0.582 -1.8305  1.2815 -0.3716
 4912SOL     OW16176   6.769   0.939  12.010  0.0272 -0.4250  0.5353
 4912SOL    HW116177   6.722   1.009  12.057  2.2802  0.2078  2.0199
 4912SOL    HW216178   6.862   0.960  12.023  0.7805 -1.7292 -2.0722
 4913SOL     OW16179   5.074   6.191  10.796 -0.4739  0.0470  0.1651
 4913SOL    HW116180   5.075   6.095  10.800 -0.1234  0.0285 -0.3032
 4913SOL    HW216181   5.034   6.218  10.879 -0.9838 -0.5153  0.1079
 4914SOL     OW16182   4.948   5.119   8.054  0.1652  0.4879  0.3556
 4914SOL    HW116183   4.881   5.146   8.117 -0.6996  1.1372 -0.7916
 4914SOL    HW216184   5.029   5.155   8.089 -0.3103  0.9388  1.0347
 4915SOL     OW16185   4.673   2.028   7.502 -0.6707  0.0142 -0.5181
 4915SOL    HW116186   4.641   1.985   7.581 -0.0397 -0.1628 -0.3524
 4915SOL    HW216187   4.669   2.121   7.522 -0.2192 -0.0420 -0.1608
 4916SOL     OW16188   6.551   1.523   8.139 -0.3988 -0.3062  0.2240
 4916SOL    HW116189   6.487   1.529   8.068 -0.7357  1.1820  0.6132
 4916SOL    HW216190   6.588   1.611   8.146  1.1363 -0.9462  0.5345
 4917SOL     OW16191   6.045   5.442   9.534 -0.1653  0.0775 -0.7320
 4917SOL    HW116192   6.032   5.496   9.612  2.1771  0.6923 -0.6905
 4917SOL    HW216193   6.013   5.356   9.558  1.3945 -0.0055  1.3340
 4918SOL     OW16194   4.398   1.233   8.474 -0.5847 -0.0858  0.3349
 4918SOL    HW116195   4.483   1.205   8.440 -0.4439 -2.0437  2.1038
 4918SOL    HW216196   4.418   1.313   8.523 -0.0683  0.3845 -0.6200
 4919SOL     OW16197   0.524   1.613   6.680  0.6281  0.0229 -0.3414
 4919SOL    HW116198   0.444   1.628   6.729  0.1418 -0.9182 -0.8078
 4919SOL    HW216199   0.591   1.662   6.727 -0.0437  0.0759  0.5844
 4920SOL     OW16200   2.245   6.853  12.053 -0.4580  0.4314  0.0122
 4920SOL    HW116201   2.292   6.930  12.021  0.7959 -0.3700 -0.1533
 4920SOL    HW216202   2.256   6.856  12.148 -0.8411  0.7305  0.0457
 4921SOL     OW16203   5.640   5.591   9.814  0.5022 -0.2241  0.7130
 4921SOL    HW116204   5.707   5.578   9.747  2.5992 -0.8381  2.8137
 4921SOL    HW216205   5.626   5.685   9.816  0.6303 -0.1677 -0.3227
 4922SOL     OW16206   1.574   6.022   6.882  0.5240  0.3756  0.4506
 4922SOL    HW116207   1.589   6.113   6.910 -0.4154  1.1690 -1.4254
 4922SOL    HW216208   1.595   6.022   6.789 -2.7460 -0.4386 -0.4173
 4923SOL     OW16209   6.981   1.996  12.212  0.6471 -0.0449 -0.2832
 4923SOL    HW116210   7.046   1.944  12.260  0.3511 -0.1316  0.0211
 4923SOL    HW216211   7.033   2.065  12.169  0.9678 -0.2476 -0.2246
 4924SOL     OW16212   2.125   2.788   0.954  0.4095  0.0209 -0.1416
 4924SOL    HW116213   2.079   2.868   0.979 -1.8313 -1.0482 -0.6170
 4924SOL    HW216214   2.183   2.769   1.027  0.4042  1.6570  0.3083
 4925SOL     OW16215   1.934   2.280   4.482 -0.4737 -0.3749  0.5958
 4925SOL    HW116216   1.953   2.372   4.501 -0.0455 -0.2130 -0.5371
 4925SOL    HW216217   1.843   2.269   4.510 -0.1593  0.0450  1.8829
 4926SOL     OW16218   6.271   5.760  12.096  0.4758  0.2219  0.6819
 4926SOL    HW116219   6.195   5.818  12.104 -0.2274 -0.5767  0.0135
 4926SOL    HW216220   6.319   5.793  12.021 -2.0199 -2.2554 -2.2803
 4927SOL     OW16221   7.373   6.398   4.314 -0.4667  0.0537  0.2002
 4927SOL    HW116222   7.347   6.490   4.326 -2.8512 -0.4619 -0.5019
 4927SOL    HW216223   7.343   6.376   4.226  0.8674 -1.1928  0.0155
 4928SOL     OW16224   2.242   0.538   7.294 -0.0689 -0.3851  0.2756
 4928SOL    HW116225   2.259   0.632   7.286  1.3589 -0.4089  2.2252
 4928SOL    HW216226   2.329   0.499   7.307 -0.6105 -2.0288 -0.7802
 4929SOL     OW16227   0.117   2.872   5.167 -0.2372 -0.1744  0.1803
 4929SOL    HW116228   0.103   2.847   5.258  0.2132  0.7743  0.5252
 4929SOL    HW216229   0.181   2.810   5.134  1.8606  1.2290  1.4019
 4930SOL     OW16230   0.240   4.932  11.203  0.9226 -0.1116 -0.2582
 4930SOL    HW116231   0.321   4.942  11.152  0.2455  4.3642 -0.8132
 4930SOL    HW216232   0.176   4.985  11.158 -0.5723  1.7233  3.5672
 4931SOL     OW16233   5.855   1.409  10.214 -0.2855 -0.1754  0.0786
 4931SOL    HW116234   5.769   1.400  10.173 -0.0190 -1.0893 -0.3121
 4931SOL    HW216235   5.910   1.447  10.146 -0.4391  0.6784  0.4214
 4932SOL     OW16236   1.323   7.053  10.095 -0.3364 -0.2136 -0.4387
 4932SOL    HW116237   1.239   7.008  10.094  0.2548 -1.4263  1.2987
 4932SOL    HW216238   1.356   7.044  10.005 -2.1583  0.5941 -1.2502
 4933SOL     OW16239   5.426   4.639  10.774 -0.1694  0.2879  0.8433
 4933SOL    HW116240   5.418   4.554  10.730 -2.3761  0.6353  0.4303
 4933SOL    HW216241   5.417   4.619  10.867  2.0729 -0.1776  1.0189
 4934SOL     OW16242   4.941   6.512  10.090 -0.3209 -0.1545  0.4313
 4934SOL    HW116243   4.994   6.591  10.080 -0.6125  0.0657  0.6515
 4934SOL    HW216244   4.971   6.455  10.019 -0.8029  0.5316 -0.3455
 4935SOL     OW16245   5.675   4.371   5.574  0.2429 -0.0029 -0.4331
 4935SOL    HW116246   5.751   4.312   5.578  0.4890  0.0163 -3.0894
 4935SOL    HW216247   5.601   4.312   5.561  0.1706  0.1378 -0.6483
 4936SOL     OW16248   3.654   3.624   0.454  0.4132 -0.3798 -0.0108
 4936SOL    HW116249   3.661   3.562   0.381 -0.9812 -0.3207 -0.2149
 4936SOL    HW216250   3.626   3.571   0.528  0.7404 -0.2476  0.2095
 4937SOL     OW16251   5.526   4.846   0.293  0.0274 -0.3467  0.3122
 4937SOL    HW116252   5.486   4.770   0.253  0.4533 -0.3557 -0.1006
 4937SOL    HW216253   5.454   4.908   0.305  0.1562  0.3474 -2.0686
 4938SOL     OW16254   4.197   7.512   9.974  0.0811  0.6086  0.0370
 4938SOL    HW116255   4.235   7.547  10.055  0.4224  2.0792 -0.7150
 4938SOL    HW216256   4.132   7.448  10.003  0.7529  0.5364  1.4432
 4939SOL     OW16257   1.724   0.600  12.351 -0.5162  0.2770  0.0285
 4939SOL    HW116258   1.736   0.683  12.395 -1.5538  2.8328 -3.9920
 4939SOL    HW216259   1.634   0.603  12.317 -0.2807 -2.0502 -1.0417
 4940SOL     OW16260   0.555   3.621  12.167  0.0671  0.6419 -0.1505
 4940SOL    HW116261   0.482   3.563  12.145  0.6567  0.0676 -0.6424
 4940SOL    HW216262   0.536   3.651  12.256 -1.0863  1.0131 -0.5041
 4941SOL     OW16263   5.072   0.070   0.770 -0.6208  0.5121 -0.0184
 4941SOL    HW116264   5.128   0.094   0.696  1.4897 -0.5611  1.1198
 4941SOL    HW216265   5.045   0.154   0.808  0.8658  1.0884 -0.1675
 4942SOL     OW16266   4.496   0.435   4.231  0.6612 -0.0119  0.5303
 4942SOL    HW116267   4.578   0.421   4.279  2.0484  0.4168 -1.5529
 4942SOL    HW216268   4.483   0.355   4.181 -0.2437 -0.0932  0.8806
 4943SOL     OW16269   5.199   0.928   4.452  0.3315  0.0203 -0.4775
 4943SOL    HW116270   5.143   0.857   4.420  1.0998 -0.8608  0.0651
 4943SOL    HW216271   5.267   0.883   4.503  0.4951  1.1982  0.3799
 4944SOL     OW16272   2.850   0.437  10.892  1.1208 -0.2388  0.2408
 4944SOL    HW116273   2.910   0.366  10.871  0.1284 -0.4729 -2.2437
 4944SOL    HW216274   2.766   0.409  10.854  0.1927  1.3656  0.9926
 4945SOL     OW16275   0.495   6.121   4.321  0.0613 -0.1956  0.4143
 4945SOL    HW116276   0.520   6.129   4.229 -1.8155 -0.0946 -0.1267
 4945SOL    HW216277   0.416   6.174   4.330  0.9875  0.9889  2.4539
 4946SOL     OW16278   5.023   6.138   9.001 -0.2647 -0.1017  0.4118
 4946SOL    HW116279   4.979   6.063   9.040 -0.3999 -0.4414 -0.3651
 4946SOL    HW216280   4.981   6.149   8.916 -0.2706  0.8816  0.5275
 4947SOL     OW16281   1.775   3.773   3.526  0.0529 -0.2429  0.1620
 4947SOL    HW116282   1.716   3.826   3.579 -0.6689 -0.8894  0.0240
 4947SOL    HW216283   1.852   3.760   3.582  0.5247  1.4621 -0.0419
 4948SOL     OW16284   6.108   3.492   2.175  0.5186 -0.1427  0.1766
 4948SOL    HW116285   6.123   3.402   2.203  1.9207  0.1435  0.4243
 4948SOL    HW216286   6.196   3.528   2.160 -0.0493  0.9193 -0.7737
 4949SOL     OW16287   6.767   0.183   8.404  0.5425  0.0617  0.1719
 4949SOL    HW116288   6.784   0.193   8.497 -1.0612 -0.3092  0.5343
 4949SOL    HW216289   6.750   0.089   8.393  1.6692 -0.0697 -0.6840
 4950SOL     OW16290   3.492   2.992   0.063 -0.6459 -0.1214 -0.7249
 4950SOL    HW116291   3.481   3.087   0.074  0.3783 -0.0445 -0.1795
 4950SOL    HW216292   3.587   2.979   0.068 -0.8261 -1.2862  0.2168
 4951SOL     OW16293   0.767   6.859   1.753 -0.2000  0.5174  0.0816
 4951SOL    HW116294   0.831   6.922   1.785 -0.0714 -0.0180  0.9121
 4951SOL    HW216295   0.781   6.781   1.806  0.0637 -0.4412 -1.3507
 4952SOL     OW16296   3.739   7.616   7.277 -0.0430  0.1059  0.2312
 4952SOL    HW116297   3.702   7.533   7.308  1.0185 -1.4544 -2.4059
 4952SOL    HW216298   3.807   7.637   7.342 -0.6441 -0.7894  1.1886
 4953SOL     OW16299   4.057   0.019   9.520 -0.3787 -0.6775 -0.5178
 4953SOL    HW116300   3.993  -0.035   9.475 -0.0753 -1.6702  0.2103
 4953SOL    HW216301   4.043   0.107   9.485  0.2383 -1.4730 -3.0137
 4954SOL     OW16302   3.666   7.227   5.022 -0.3344  0.0121 -1.2923
 4954SOL    HW116303   3.630   7.307   4.984  0.1559  0.8759 -0.0386
 4954SOL    HW216304   3.745   7.256   5.069 -0.9934 -0.9088  0.5108
 4955SOL     OW16305   6.152   0.622   9.610  0.3996  0.2335  0.1989
 4955SOL    HW116306   6.142   0.603   9.703  0.4097  1.4328  0.4540
 4955SOL    HW216307   6.230   0.572   9.584 -0.9407 -2.0259  0.2487
 4956SOL     OW16308   2.658   4.806   2.210 -0.4454  0.4592 -0.7057
 4956SOL    HW116309   2.655   4.752   2.131 -0.9806  1.2906 -1.2716
 4956SOL    HW216310   2.751   4.809   2.234 -0.4916 -1.3692 -0.1805
 4957SOL     OW16311   5.947   1.317   1.677 -0.4897  0.3249 -0.3843
 4957SOL    HW116312   6.033   1.350   1.648 -0.2610 -0.0447 -0.1353
 4957SOL    HW216313   5.968   1.253   1.745 -0.7946 -1.8264 -2.1994
 4958SOL     OW16314   3.594   0.659   4.896  0.0956  0.0368 -0.5134
 4958SOL    HW116315   3.590   0.745   4.855  0.5325  0.7460  0.8860
 4958SOL    HW216316   3.688   0.644   4.911 -0.1249  0.3612  1.3469
 4959SOL     OW16317   3.081   0.120   2.184 -0.0478  0.2749 -0.1005
 4959SOL    HW116318   3.016   0.185   2.213 -1.2960 -0.3206 -1.4150
 4959SOL    HW216319   3.147   0.171   2.138  0.4733  0.9008  1.2967
 4960SOL     OW16320   2.555   7.443   1.919  0.2415 -0.2690  0.0943
 4960SOL    HW116321   2.484   7.388   1.953  0.1873 -0.0912  0.2728
 4960SOL    HW216322   2.590   7.487   1.996 -0.2423  0.5602 -0.1436
 4961SOL     OW16323   2.736   1.507   9.077 -0.4956  0.1189 -0.1122
 4961SOL    HW116324   2.805   1.535   9.137  0.8604 -0.3392 -1.4011
 4961SOL    HW216325   2.742   1.412   9.076 -2.6106 -0.1217  1.3691
 4962SOL     OW16326   5.525   7.369   5.529  0.2913 -0.2397  0.0235
 4962SOL    HW116327   5.556   7.280   5.510  0.9318 -0.6232  2.5607
 4962SOL    HW216328   5.604   7.422   5.536 -0.0909  0.6295 -1.6224
 4963SOL     OW16329   7.393   3.330  11.074 -0.0341 -0.0646 -0.0277
 4963SOL    HW116330   7.440   3.363  11.151 -1.8932  1.2264  0.6044
 4963SOL    HW216331   7.379   3.237  11.093  0.6329 -0.0449  0.6009
 4964SOL     OW16332   7.631   6.966  11.523  0.4502 -0.2280  0.4110
 4964SOL    HW116333   7.642   7.059  11.503 -0.7365 -0.1185  0.1997
 4964SOL    HW216334   7.606   6.965  11.616  0.4253 -0.3383  0.4032
 4965SOL     OW16335   6.142   5.404  11.151  0.0087  0.1884 -0.0828
 4965SOL    HW116336   6.229   5.441  11.166 -0.4106  0.9523  0.4837
 4965SOL    HW216337   6.117   5.366  11.235 -0.7663  1.1532  0.1287
 4966SOL     OW16338   5.935   0.100   8.741 -0.6567 -0.2918  0.3018
 4966SOL    HW116339   5.923   0.150   8.660  0.6593 -1.1817 -0.4787
 4966SOL    HW216340   5.905   0.012   8.720  1.5365 -1.0402  0.1126
 4967SOL     OW16341   0.973   3.754  10.913 -0.5954 -0.2608  0.7354
 4967SOL    HW116342   1.028   3.757  10.835 -1.5590 -1.4379 -0.0323
 4967SOL    HW216343   1.024   3.799  10.980  0.3871  0.5290 -0.4794
 4968SOL     OW16344   3.114   2.522   4.341 -0.6669  0.0770  0.2794
 4968SOL    HW116345   3.172   2.557   4.408 -2.2394  1.4387  1.0146
 4968SOL    HW216346   3.026   2.535   4.376 -1.4717 -0.8492 -1.2733
 4969SOL     OW16347   6.418   6.249   1.224  0.6593  0.1618 -0.6998
 4969SOL    HW116348   6.325   6.239   1.206  0.9317  0.0344 -2.2110
 4969SOL    HW216349   6.430   6.343   1.238  0.2070  0.0957  0.1631
 4970SOL     OW16350   1.923   2.747  11.397  0.1567 -0.1274 -0.0838
 4970SOL    HW116351   1.963   2.813  11.455 -0.0050  1.0978 -1.3289
 4970SOL    HW216352   1.998   2.700  11.360  0.3609  0.6765 -0.7024
 4971SOL     OW16353   4.667   1.999   5.380  0.1340 -0.1912 -0.2469
 4971SOL    HW116354   4.589   1.947   5.400 -0.1931  0.6079  0.6734
 4971SOL    HW216355   4.724   1.940   5.330 -0.5344 -1.1729  0.1190
 4972SOL     OW16356   1.787   1.099   0.810 -0.3319 -0.2656 -0.0782
 4972SOL    HW116357   1.751   1.052   0.885  0.1728 -1.8716 -0.7975
 4972SOL    HW216358   1.722   1.085   0.740  0.1633 -0.4927 -0.4984
 4973SOL     OW16359   7.730   7.198   8.307 -0.0311  0.0003  0.6082
 4973SOL    HW116360   7.662   7.133   8.324  1.8002 -1.9669  0.8849
 4973SOL    HW216361   7.763   7.176   8.220  2.1211 -0.9850  1.5777
 4974SOL     OW16362   4.035   2.885  10.108  0.0431 -0.5856 -0.5129
 4974SOL    HW116363   4.006   2.932  10.030  0.9862 -0.1386 -0.6164
 4974SOL    HW216364   3.956   2.873  10.161  0.0253  3.0417  0.5514
 4975SOL     OW16365   3.455   6.938   0.592 -0.0883  0.6005  0.1089
 4975SOL    HW116366   3.416   6.925   0.505 -1.2516 -0.1247  0.7024
 4975SOL    HW216367   3.419   7.021   0.622 -0.7598  0.2032  0.4272
 4976SOL     OW16368   6.590   1.972   8.522 -0.3459 -0.1807 -0.3173
 4976SOL    HW116369   6.650   2.017   8.583  0.6063 -0.3884 -1.0798
 4976SOL    HW216370   6.519   1.942   8.578  0.2773  0.0326  0.6293
 4977SOL     OW16371   7.936   0.917  11.931  0.5423 -0.3065 -0.3505
 4977SOL    HW116372   7.942   1.008  11.900 -0.1554 -0.2817 -0.4245
 4977SOL    HW216373   8.026   0.894  11.955  0.5133  0.9490  1.1774
 4978SOL     OW16374   5.200   6.242   0.088  0.1866  0.2030 -0.3572
 4978SOL    HW116375   5.286   6.230   0.130  0.2101 -0.7789 -0.6631
 4978SOL    HW216376   5.205   6.328   0.048  1.5127 -0.3520 -1.4584
 4979SOL     OW16377   1.298   5.264  10.595 -0.1608  0.5527  0.7353
 4979SOL    HW116378   1.305   5.295  10.685  0.9238 -0.6678  1.0929
 4979SOL    HW216379   1.343   5.330  10.543 -1.2039  1.5137  0.9940
 4980SOL     OW16380   4.746   2.573  12.246  0.0844  0.0967  0.3346
 4980SOL    HW116381   4.760   2.485  12.212 -0.2978  0.1060  0.1473
 4980SOL    HW216382   4.834   2.611  12.251  0.3094 -0.5147  1.0337
 4981SOL     OW16383   0.658   7.920   8.160 -0.1416 -0.6124 -0.0939
 4981SOL    HW116384   0.738   7.965   8.134  1.2373 -1.4889  2.3331
 4981SOL    HW216385   0.595   7.941   8.091  1.7610  1.2068 -1.3856
 4982SOL     OW16386   1.604   5.392   5.794  0.6572 -0.6228 -0.3261
 4982SOL    HW116387   1.681   5.397   5.738  1.1823 -2.1567  0.1935
 4982SOL    HW216388   1.629   5.331   5.863 -1.3445 -1.9583 -0.6908
 4983SOL     OW16389   7.724   3.020   5.720  0.1424  0.4928  0.3888
 4983SOL    HW116390   7.640   3.045   5.683  0.1321 -0.6244 -0.4225
 4983SOL    HW216391   7.786   3.084   5.686  0.2287 -0.7965 -2.1143
 4984SOL     OW16392   0.765   7.391  11.482 -0.1540  0.3663 -0.2230
 4984SOL    HW116393   0.810   7.398  11.566  1.2594 -1.5527 -0.7365
 4984SOL    HW216394   0.785   7.473  11.437 -0.4224  1.1612  1.0303
 4985SOL     OW16395   0.894   4.415   6.448  0.5871  0.2271  0.0066
 4985SOL    HW116396   0.884   4.500   6.405 -0.5135  0.9828  1.6660
 4985SOL    HW216397   0.876   4.351   6.379 -0.7548  1.3804 -0.7748
 4986SOL     OW16398   0.347   4.761   6.352  0.6355 -0.0410 -0.3220
 4986SOL    HW116399   0.370   4.778   6.261  1.6878  3.2662  0.4243
 4986SOL    HW216400   0.301   4.840   6.381  0.1447 -1.0708  1.9877
 4987SOL     OW16401   4.128   3.636   5.170 -0.5503 -0.0356 -0.1759
 4987SOL    HW116402   4.173   3.698   5.226 -1.1476  1.0270 -0.8230
 4987SOL    HW216403   4.105   3.563   5.227  0.3706  0.2321  0.5501
 4988SOL     OW16404   3.463   5.111   3.829  0.2358 -0.0013  0.1846
 4988SOL    HW116405   3.550   5.079   3.851 -0.0122 -1.0275 -0.2917
 4988SOL    HW216406   3.403   5.041   3.854 -0.2422 -0.3568 -1.7398
 4989SOL     OW16407   6.148   1.120  10.044 -0.5361  0.4055 -0.1189
 4989SOL    HW116408   6.134   1.158  10.131  0.5219  0.4702  0.0358
 4989SOL    HW216409   6.202   1.183   9.998 -1.0608  0.3552 -0.8322
 4990SOL     OW16410   7.839   1.778   6.237 -0.2530  0.1695 -0.1714
 4990SOL    HW116411   7.874   1.857   6.195 -1.4224 -0.4999 -2.5514
 4990SOL    HW216412   7.745   1.791   6.240 -0.4583 -1.0824 -0.4908
 4991SOL     OW16413   0.350   5.386   0.654 -0.4742  0.0530  0.0589
 4991SOL    HW116414   0.403   5.307   0.660  0.1593  0.2644 -1.9207
 4991SOL    HW216415   0.299   5.387   0.735  1.7514 -0.7009  1.5695
 4992SOL     OW16416   0.731   7.378   1.944 -0.1017 -0.4883  0.1039
 4992SOL    HW116417   0.806   7.362   2.002 -0.2048  1.3319  0.7943
 4992SOL    HW216418   0.656   7.380   2.002 -0.6160 -1.4920 -0.4912
 4993SOL     OW16419   7.509   5.829   7.867  0.6805  0.0452  0.0161
 4993SOL    HW116420   7.424   5.852   7.828  0.6448 -2.7224 -1.8831
 4993SOL    HW216421   7.562   5.908   7.858 -1.4994  1.6997  0.8285
 4994SOL     OW16422   0.152   2.475   6.803  0.1988  1.3347 -0.1198
 4994SOL    HW116423   0.070   2.433   6.827  0.3132  0.1330 -1.6513
 4994SOL    HW216424   0.180   2.522   6.882 -1.3011  0.7253  0.8038
 4995SOL     OW16425   5.264   3.971   0.910 -0.7677  0.3434 -0.0088
 4995SOL    HW116426   5.269   3.996   0.818  0.1905  1.5201  0.3434
 4995SOL    HW216427   5.190   3.911   0.914 -0.9151  0.3828 -1.5188
 4996SOL     OW16428   5.533   7.446   6.476  0.0310 -0.0216 -0.5080
 4996SOL    HW116429   5.549   7.508   6.547  2.0650 -2.0044  0.9200
 4996SOL    HW216430   5.444   7.415   6.490 -0.6665  1.7523 -0.6743
 4997SOL     OW16431   0.054   7.874   6.617 -0.2235  0.0207 -0.0488
 4997SOL    HW116432   0.115   7.878   6.690  1.0523  1.6826 -1.1453
 4997SOL    HW216433   0.039   7.965   6.592 -3.0960 -0.3160  0.0792
 4998SOL     OW16434   6.894   0.628  11.644 -0.4201 -0.3153  0.4649
 4998SOL    HW116435   6.920   0.640  11.553  0.7631  1.4499  0.9711
 4998SOL    HW216436   6.976   0.611  11.690 -0.9229 -0.5746  1.2789
 4999SOL     OW16437   1.684   6.625   9.667 -1.0765 -0.1143 -0.0344
 4999SOL    HW116438   1.650   6.591   9.584  0.7870  1.0034 -1.3238
 4999SOL    HW216439   1.759   6.570   9.687 -1.2320 -0.0763  0.6835
 5000SOL     OW16440   7.403   7.219   7.267  0.1933  0.1241  0.2178
 5000SOL    HW116441   7.349   7.298   7.273  0.5620  0.2796  2.6528
 5000SOL    HW216442   7.343   7.147   7.282 -0.1557 -0.1244 -2.0772
 5001SOL     OW16443   7.462   1.743   3.358 -0.2547  0.2979  0.1807
 5001SOL    HW116444   7.423   1.753   3.271 -1.8806 -3.9888  0.2179
 5001SOL    HW216445   7.389   1.724   3.416  0.9856  1.4578  2.2628
 5002SOL     OW16446   2.767   6.001   1.313  0.3556 -0.2892  0.5078
 5002SOL    HW116447   2.717   6.020   1.233  0.7316  1.2921  0.6260
 5002SOL    HW216448   2.858   6.010   1.287  0.4852 -0.0197  1.0462
 5003SOL     OW16449   7.385   5.858   0.667 -0.6420  0.4944 -0.0861
 5003SOL    HW116450   7.456   5.810   0.710 -1.2742 -0.6419 -0.2723
 5003SOL    HW216451   7.416   5.948   0.663  0.9927 -0.0556 -0.5893
 5004SOL     OW16452   2.286   3.962   7.798  0.2145  0.2833  0.0676
 5004SOL    HW116453   2.239   3.954   7.715  0.5459  0.6933 -0.1646
 5004SOL    HW216454   2.371   3.920   7.782  0.6022  1.1013 -0.0665
 5005SOL     OW16455   5.453   2.026   3.041  0.2122  0.3859  0.2085
 5005SOL    HW116456   5.413   2.005   3.125  0.3366 -0.8270 -0.0186
 5005SOL    HW216457   5.457   1.943   2.994  0.5053  0.9716 -0.8486
 5006SOL     OW16458   3.606   3.316   2.369  0.1585  0.1963 -0.0665
 5006SOL    HW116459   3.638   3.312   2.279 -0.1401 -0.0987 -0.1620
 5006SOL    HW216460   3.544   3.389   2.370 -0.4078 -0.2754 -0.2883
 5007SOL     OW16461   4.332   3.935   2.517 -0.1686  0.4638  0.3947
 5007SOL    HW116462   4.362   3.934   2.608  0.5886  0.4372  0.1517
 5007SOL    HW216463   4.406   3.903   2.467 -0.9389 -0.5166 -0.1408
 5008SOL     OW16464   1.260   6.329   8.890  0.2621  0.4389  0.4843
 5008SOL    HW116465   1.327   6.271   8.927  0.6540  1.7548  1.9715
 5008SOL    HW216466   1.303   6.415   8.887 -0.0101  0.5514 -2.4793
 5009SOL     OW16467   5.345   6.998   2.329  0.9322  0.5125 -0.0748
 5009SOL    HW116468   5.338   7.075   2.386 -0.3548  0.7417 -0.5227
 5009SOL    HW216469   5.367   7.033   2.243  1.4198  0.2858 -0.0445
 5010SOL     OW16470   3.391   2.573  11.480 -0.7944  0.1307 -0.1739
 5010SOL    HW116471   3.310   2.530  11.454 -1.7484  2.5486 -1.5382
 5010SOL    HW216472   3.459   2.530  11.427 -1.8268  0.8320 -2.1579
 5011SOL     OW16473   1.349   3.726   7.386 -0.4440  0.2284  0.6205
 5011SOL    HW116474   1.302   3.734   7.469 -0.0324  2.2414  0.7145
 5011SOL    HW216475   1.435   3.691   7.410 -1.8656 -4.0074  0.3895
 5012SOL     OW16476   4.951   7.802   2.496  0.2312  0.1029 -0.2253
 5012SOL    HW116477   5.024   7.742   2.508 -0.2401 -0.2555  0.9348
 5012SOL    HW216478   4.888   7.753   2.443  0.0822 -0.2196  0.2543
 5013SOL     OW16479   5.447   5.135  11.623 -0.2238  0.7688  0.0568
 5013SOL    HW116480   5.383   5.065  11.632 -0.5760  0.9477 -0.9752
 5013SOL    HW216481   5.527   5.099  11.662 -0.4226 -0.1791 -0.3741
 5014SOL     OW16482   7.164   3.837   8.954 -0.0553 -0.0857  0.6330
 5014SOL    HW116483   7.115   3.907   8.911  0.8343 -0.8965 -1.8854
 5014SOL    HW216484   7.100   3.767   8.964 -0.4734  0.3950  1.4164
 5015SOL     OW16485   7.318   2.693  10.090  0.2431  0.1989 -0.2166
 5015SOL    HW116486   7.403   2.658  10.119  0.5930  0.7482 -0.5611
 5015SOL    HW216487   7.287   2.745  10.165  0.6217  0.7041 -0.4055
 5016SOL     OW16488   0.489   4.995   3.766 -0.2397 -0.2143 -0.2024
 5016SOL    HW116489   0.492   5.088   3.789  0.2292 -0.1863 -0.3683
 5016SOL    HW216490   0.506   4.993   3.672 -1.2782 -0.3952 -0.4050
 5017SOL     OW16491   2.889   6.574  11.241 -0.1236 -0.5382  0.3948
 5017SOL    HW116492   2.963   6.521  11.210  1.1984  1.1624  0.4887
 5017SOL    HW216493   2.887   6.559  11.335  0.6937  0.0814  0.5227
 5018SOL     OW16494   7.486   3.122   5.579  0.0381 -0.4351 -0.0786
 5018SOL    HW116495   7.531   3.115   5.494  0.1703 -1.1446  0.0427
 5018SOL    HW216496   7.437   3.204   5.573  1.3891  0.3865 -0.1851
 5019SOL     OW16497   2.943   5.859   9.503 -0.2464 -0.1257  0.3108
 5019SOL    HW116498   3.031   5.895   9.497 -0.2835  0.3197  1.9906
 5019SOL    HW216499   2.957   5.764   9.508  0.1469 -0.0535  0.6482
 5020SOL     OW16500   5.177   5.853   2.994  0.1645 -0.3352 -1.0191
 5020SOL    HW116501   5.185   5.910   2.917  0.1493 -1.2707 -1.7434
 5020SOL    HW216502   5.266   5.819   3.007  0.3414  0.4698 -0.0972
 5021SOL     OW16503   2.865   7.662   5.041 -0.4829  0.3040  0.0812
 5021SOL    HW116504   2.870   7.589   4.980 -2.2947  1.0588 -1.0843
 5021SOL    HW216505   2.782   7.648   5.088 -0.0170  0.7215  1.0578
 5022SOL     OW16506   5.634   7.529  11.259  0.1587  0.0949  0.0408
 5022SOL    HW116507   5.651   7.537  11.353  1.0748  2.6754 -0.2535
 5022SOL    HW216508   5.585   7.608  11.237 -0.7881 -0.8846 -1.5270
 5023SOL     OW16509   7.284   7.580   7.542  0.2393 -0.4878  0.3869
 5023SOL    HW116510   7.348   7.649   7.524  0.5412 -0.9062 -0.1563
 5023SOL    HW216511   7.249   7.556   7.457  0.2995 -1.1561  0.5437
 5024SOL     OW16512   1.869   5.007   3.194  0.3637 -0.3464  0.2910
 5024SOL    HW116513   1.827   4.927   3.161  0.9350 -0.3865 -0.3579
 5024SOL    HW216514   1.960   4.998   3.168  0.7810 -0.2376  1.6371
 5025SOL     OW16515   1.629   3.212   8.884 -0.2108 -0.5440 -0.5577
 5025SOL    HW116516   1.562   3.180   8.824 -1.3787 -0.9496  0.9043
 5025SOL    HW216517   1.669   3.133   8.920 -2.6775 -0.5446  2.6015
 5026SOL     OW16518   6.868   6.827   2.402  0.5223  0.1382 -0.2776
 5026SOL    HW116519   6.870   6.887   2.477 -0.9964  1.4186 -1.2164
 5026SOL    HW216520   6.776   6.802   2.393  0.8752 -1.0025 -0.9634
 5027SOL     OW16521   2.376   6.909   1.854  0.4136  0.2633 -0.1916
 5027SOL    HW116522   2.308   6.963   1.895 -0.3817 -0.6184 -0.3169
 5027SOL    HW216523   2.340   6.886   1.769  1.2185  0.4380 -0.5898
 5028SOL     OW16524   5.605   5.846   6.588  0.3479 -0.2478  0.0895
 5028SOL    HW116525   5.631   5.801   6.668  0.3435 -0.6912 -0.1557
 5028SOL    HW216526   5.554   5.781   6.539 -2.9754  1.1375  1.4241
 5029SOL     OW16527   2.288   7.370  12.387 -0.8134 -0.5423  0.0749
 5029SOL    HW116528   2.310   7.460  12.409 -1.9088 -0.0293 -0.8536
 5029SOL    HW216529   2.243   7.336  12.465 -0.2355 -0.3708  0.4952
 5030SOL     OW16530   6.926   1.766   2.005 -0.1669  0.4295 -0.2115
 5030SOL    HW116531   6.988   1.736   2.071 -1.0270  1.3358  1.0803
 5030SOL    HW216532   6.962   1.850   1.975  0.7742 -0.4812 -1.7220
 5031SOL     OW16533   6.649   2.856   2.183 -0.2423 -0.2594  0.0113
 5031SOL    HW116534   6.563   2.893   2.164 -0.4346 -0.3337  0.7160
 5031SOL    HW216535   6.647   2.770   2.142  0.4514  0.7139 -2.2288
 5032SOL     OW16536   6.462   5.976   7.116 -0.0701  0.3523 -0.7162
 5032SOL    HW116537   6.408   6.018   7.182  1.2011  0.9424 -0.0033
 5032SOL    HW216538   6.551   5.981   7.151  0.5967  0.3635 -2.3042
 5033SOL     OW16539   7.623   2.188   4.843  0.0704 -0.1899  0.1086
 5033SOL    HW116540   7.655   2.227   4.762 -1.8147  1.7618  0.2210
 5033SOL    HW216541   7.557   2.249   4.875 -0.2505 -1.6078  2.3966
 5034SOL     OW16542   6.670   1.092   5.745  0.1754  0.2420  0.0607
 5034SOL    HW116543   6.662   1.024   5.679 -1.4775 -0.8134  1.2816
 5034SOL    HW216544   6.660   1.174   5.697  0.4596 -0.4349 -1.1825
 5035SOL     OW16545   7.569   1.153  11.131  0.2886  0.0281  0.2334
 5035SOL    HW116546   7.540   1.202  11.208  0.4304  1.9501 -0.8736
 5035SOL    HW216547   7.531   1.066  11.143  0.2120  0.2963  2.3976
 5036SOL     OW16548   4.469   6.578   2.334  0.6952 -0.1378 -0.0878
 5036SOL    HW116549   4.548   6.617   2.372 -0.1796 -0.4072  2.2103
 5036SOL    HW216550   4.467   6.609   2.244  2.2423  1.6832  0.4476
 5037SOL     OW16551   0.676   1.934   9.847  0.3931  0.0595 -0.2007
 5037SOL    HW116552   0.640   1.846   9.855  0.6092  0.0167  0.3070
 5037SOL    HW216553   0.657   1.959   9.756 -0.7287 -0.0295  0.0072
 5038SOL     OW16554   7.919   5.306   6.301 -0.0155  0.1414 -0.0756
 5038SOL    HW116555   7.982   5.373   6.273  0.8648 -0.4209  0.5378
 5038SOL    HW216556   7.844   5.320   6.243  0.4134  1.2227 -0.4111
 5039SOL     OW16557   0.812   5.880   6.856  0.1711  0.0135 -0.1035
 5039SOL    HW116558   0.726   5.870   6.897  0.8661 -2.0535  0.9836
 5039SOL    HW216559   0.851   5.793   6.861  1.4015  0.3232 -2.7697
 5040SOL     OW16560   1.594   3.659   3.062  0.2760 -0.4391  0.0219
 5040SOL    HW116561   1.642   3.640   2.982  0.5789  0.4891 -0.0285
 5040SOL    HW216562   1.631   3.600   3.128  0.5721 -0.6455 -0.3299
 5041SOL     OW16563   6.365   1.252   6.573 -0.3175 -1.1713 -0.4350
 5041SOL    HW116564   6.440   1.276   6.628  0.4287 -1.9613 -1.0954
 5041SOL    HW216565   6.290   1.255   6.633 -0.0752  1.3021 -0.1279
 5042SOL     OW16566   1.035   5.229   8.265 -0.5427 -0.1663  0.0480
 5042SOL    HW116567   1.121   5.264   8.242  0.7902 -1.8300  2.0646
 5042SOL    HW216568   1.054   5.149   8.314 -3.2746 -0.7145  0.4009
 5043SOL     OW16569   6.510   1.261   0.022  0.2611  0.3299 -0.3513
 5043SOL    HW116570   6.563   1.225  -0.049  0.2723 -2.2318  0.8571
 5043SOL    HW216571   6.564   1.252   0.100 -0.7169  0.6787  0.3927
 5044SOL     OW16572   1.691   4.427  11.584 -0.4479 -0.6889 -0.0993
 5044SOL    HW116573   1.781   4.447  11.560 -0.7105 -0.6051 -1.0759
 5044SOL    HW216574   1.680   4.466  11.670 -0.3249  1.6841 -1.0808
 5045SOL     OW16575   1.660   1.848   6.353  0.7352  0.2506 -0.0110
 5045SOL    HW116576   1.614   1.929   6.332  2.3783  0.6816 -2.2370
 5045SOL    HW216577   1.751   1.864   6.326  0.8320 -2.7829 -1.8608
 5046SOL     OW16578   7.561   0.925   2.311  0.0019 -0.2300 -0.8017
 5046SOL    HW116579   7.472   0.897   2.289 -1.3532  1.4231  2.0211
 5046SOL    HW216580   7.568   1.013   2.274 -1.0755  1.2039  2.1111
 5047SOL     OW16581   7.114   4.729   5.696 -0.3059  0.2204 -0.1190
 5047SOL    HW116582   7.038   4.771   5.656 -0.8003 -2.1072 -1.8342
 5047SOL    HW216583   7.165   4.801   5.733 -2.8648  1.9335  0.3133
 5048SOL     OW16584   3.446   7.057  11.683 -0.0308  0.0275 -0.0166
 5048SOL    HW116585   3.424   7.124  11.617 -0.8111  0.4248  0.6177
 5048SOL    HW216586   3.361   7.018  11.705  0.2487 -0.2113  0.6304
 5049SOL     OW16587   6.627   5.176  12.383 -0.8490 -0.2466  0.8962
 5049SOL    HW116588   6.584   5.120  12.319 -2.6922 -0.3095  2.0941
 5049SOL    HW216589   6.608   5.134  12.467 -0.4114  1.0017  1.6443
 5050SOL     OW16590   1.727   0.498   2.636 -0.2468 -0.0097 -0.5760
 5050SOL    HW116591   1.795   0.519   2.571  0.5420  0.4068  0.3455
 5050SOL    HW216592   1.691   0.414   2.607 -1.2662  1.0631 -2.6027
 5051SOL     OW16593   5.433   2.680   2.065  0.4298  0.4136 -0.4074
 5051SOL    HW116594   5.453   2.621   2.137  0.1884  0.1252 -0.5708
 5051SOL    HW216595   5.338   2.674   2.055  0.3871  0.9238 -0.3472
 5052SOL     OW16596   4.456   3.243  10.781 -0.1605 -0.0795 -0.2938
 5052SOL    HW116597   4.374   3.292  10.786 -0.0946 -0.0952  1.8389
 5052SOL    HW216598   4.437   3.160  10.824  0.4822 -0.8736 -1.4808
 5053SOL     OW16599   1.144   2.210  12.375 -0.3407  0.1501 -0.2749
 5053SOL    HW116600   1.080   2.140  12.383 -0.1156 -0.0316 -0.0457
 5053SOL    HW216601   1.224   2.174  12.413 -0.1094  0.3844 -0.5345
 5054SOL     OW16602   4.565   0.158   8.587 -0.0604  0.3782 -0.2351
 5054SOL    HW116603   4.564   0.198   8.674 -0.7682  0.1843 -0.1536
 5054SOL    HW216604   4.530   0.226   8.530 -0.5492  0.1519 -0.2109
 5055SOL     OW16605   4.543   3.144   0.693  0.0338 -0.5713  0.3610
 5055SOL    HW116606   4.469   3.084   0.685  0.8886 -1.5637 -0.3401
 5055SOL    HW216607   4.540   3.195   0.612  0.1833 -0.6926  0.2790
 5056SOL     OW16608   5.423   0.675   5.723 -0.4459  0.7081 -0.2058
 5056SOL    HW116609   5.382   0.602   5.769  0.5719 -0.6026 -1.2830
 5056SOL    HW216610   5.377   0.678   5.639  0.4592  0.3726 -0.7233
 5057SOL     OW16611   0.538   6.890   4.901 -0.4531 -0.3405 -0.2843
 5057SOL    HW116612   0.610   6.830   4.923 -0.6966 -0.9332 -1.0618
 5057SOL    HW216613   0.458   6.841   4.923 -0.6404  0.1356  0.1314
 5058SOL     OW16614   0.751   7.617   7.945 -0.2626  0.7314  0.0686
 5058SOL    HW116615   0.790   7.556   7.882  1.2959  1.0483  0.6730
 5058SOL    HW216616   0.684   7.664   7.896  0.2213  0.2589 -1.0685
 5059SOL     OW16617   1.376   4.761   1.848 -0.5097 -0.0540  0.5846
 5059SOL    HW116618   1.471   4.776   1.852 -0.6194  1.2088 -0.8715
 5059SOL    HW216619   1.356   4.717   1.931  1.5916 -1.9161  0.2095
 5060SOL     OW16620   1.201   0.827   4.178 -0.2645 -0.0241  0.1587
 5060SOL    HW116621   1.206   0.775   4.097  2.0992  0.9400 -0.3646
 5060SOL    HW216622   1.146   0.773   4.236  0.4718 -2.2000 -1.0230
 5061SOL     OW16623   3.157   4.782   7.010 -0.5678  0.0037  0.1210
 5061SOL    HW116624   3.111   4.860   6.980 -0.9934 -0.1901  0.2571
 5061SOL    HW216625   3.193   4.806   7.096 -0.4300  0.1516  0.0212
 5062SOL     OW16626   3.147   0.083   2.780 -0.1450 -0.2301 -0.7301
 5062SOL    HW116627   3.137   0.173   2.749  0.5502 -0.4882 -1.7478
 5062SOL    HW216628   3.113   0.085   2.870 -1.7656  0.6534 -1.3141
 5063SOL     OW16629   7.858   7.467   0.033 -0.1620  0.4247 -0.0445
 5063SOL    HW116630   7.882   7.508  -0.050 -1.4510 -0.2415 -0.7754
 5063SOL    HW216631   7.894   7.379   0.028  0.5747  0.6802  0.5279
 5064SOL     OW16632   7.062   1.264   0.249 -0.0866 -0.7293  0.3159
 5064SOL    HW116633   7.040   1.330   0.182 -1.1286 -0.5454  0.8330
 5064SOL    HW216634   7.155   1.247   0.235  0.4809  1.6111  0.8140
 5065SOL     OW16635   7.785   1.772  10.685  0.6511 -0.0260 -0.0989
 5065SOL    HW116636   7.850   1.820  10.737  2.3871 -1.5008 -0.8091
 5065SOL    HW216637   7.776   1.823  10.605 -0.4674  1.1405  0.7320
 5066SOL     OW16638   6.632   4.107   0.484  0.2381 -0.3059  0.1435
 5066SOL    HW116639   6.624   4.014   0.465 -0.7083 -0.2129 -0.0015
 5066SOL    HW216640   6.541   4.139   0.482  0.6591  0.9650 -1.6726
 5067SOL     OW16641   4.961   4.121  11.075 -0.8836 -0.6092 -0.1706
 5067SOL    HW116642   5.045   4.142  11.117 -0.7701 -3.2434  1.1537
 5067SOL    HW216643   4.919   4.206  11.061  0.9816  0.6459  1.3100
 5068SOL     OW16644   5.662   3.119  12.071  0.1414 -0.3793  0.2520
 5068SOL    HW116645   5.661   3.213  12.086 -0.5871 -0.4561  0.6844
 5068SOL    HW216646   5.588   3.085  12.120  0.9249 -1.2978  0.8404
 5069SOL     OW16647   7.102   6.770   7.975 -0.4838  0.0740 -0.6047
 5069SOL    HW116648   7.160   6.737   7.907  0.0506 -0.0304 -0.1006
 5069SOL    HW216649   7.089   6.863   7.953  0.5332  0.3064 -0.2638
 5070SOL     OW16650   5.656   4.593   5.065  0.2504  0.6446  0.2641
 5070SOL    HW116651   5.637   4.548   5.147  1.7788  2.3643  1.6457
 5070SOL    HW216652   5.592   4.663   5.060 -0.6611 -0.2124 -0.7234
 5071SOL     OW16653   2.985   0.684   7.223 -0.0995 -0.0934 -0.5330
 5071SOL    HW116654   2.971   0.620   7.154  0.2203 -2.7769  1.7007
 5071SOL    HW216655   2.914   0.668   7.285 -0.9757  2.9057 -0.6054
 5072SOL     OW16656   6.206   4.941   6.961 -0.1795 -0.3862 -0.1624
 5072SOL    HW116657   6.176   4.875   6.898  1.1057 -1.1168 -0.0512
 5072SOL    HW216658   6.168   5.023   6.930 -2.3949 -1.2545  0.0833
 5073SOL     OW16659   5.199   7.741   6.754  0.2147  0.3694 -0.0191
 5073SOL    HW116660   5.203   7.836   6.749 -0.1509  0.4261  0.6553
 5073SOL    HW216661   5.286   7.711   6.728  1.4507  1.0275  2.9712
 5074SOL     OW16662   0.015   7.855   7.463  0.1165  0.0237 -0.1246
 5074SOL    HW116663   0.099   7.821   7.492  0.3498  0.7825  0.1256
 5074SOL    HW216664  -0.006   7.806   7.384  0.4602 -0.6466  0.1973
 5075SOL     OW16665   2.331   1.007   5.706  0.0758 -0.0073  0.2485
 5075SOL    HW116666   2.262   0.998   5.640  1.6152  0.9526 -1.5372
 5075SOL    HW216667   2.285   1.040   5.783 -1.7333 -0.9906 -0.3397
 5076SOL     OW16668   0.238   2.160   4.422 -0.3026 -0.8235  0.3646
 5076SOL    HW116669   0.203   2.196   4.503 -1.0582 -1.4391  0.3228
 5076SOL    HW216670   0.320   2.117   4.448 -0.6572 -1.2132  0.8408
 5077SOL     OW16671   6.664   7.908   3.264 -0.3554  0.4395 -0.4363
 5077SOL    HW116672   6.711   7.834   3.303 -1.8868 -0.1066  0.4573
 5077SOL    HW216673   6.588   7.869   3.223 -0.2194  1.3412 -1.6042
 5078SOL     OW16674   4.812   7.800   3.868 -0.4112 -0.6826 -0.1200
 5078SOL    HW116675   4.828   7.802   3.774  4.4584 -1.4098  0.3916
 5078SOL    HW216676   4.801   7.707   3.888  2.6116 -1.0411  0.3097
 5079SOL     OW16677   1.711   4.967  12.322 -0.2279 -0.0271 -0.0409
 5079SOL    HW116678   1.776   5.008  12.379 -0.8415  1.6052 -0.4686
 5079SOL    HW216679   1.749   4.973  12.234 -0.1591 -0.7503 -0.0682
 5080SOL     OW16680   1.209   0.559   6.077  0.4544 -0.8665 -0.2303
 5080SOL    HW116681   1.203   0.555   6.172 -0.2585 -2.4975 -0.3019
 5080SOL    HW216682   1.292   0.603   6.060 -0.2479  1.1203  1.0984
 5081SOL     OW16683   6.667   5.637  11.069 -0.2494  1.0412  0.6346
 5081SOL    HW116684   6.637   5.724  11.042  0.6613  0.8502 -1.0885
 5081SOL    HW216685   6.612   5.576  11.021  0.2282  0.6818  0.5365
 5082SOL     OW16686   7.728   2.506   3.076  0.3269  0.0189 -0.0603
 5082SOL    HW116687   7.779   2.454   3.137  1.2821  0.4288 -0.4972
 5082SOL    HW216688   7.751   2.473   2.989  1.0809  1.2431 -0.3574
 5083SOL     OW16689   4.363   5.682   3.028  0.2628 -0.0828  1.0687
 5083SOL    HW116690   4.335   5.748   3.092 -2.6345  0.1564 -0.3239
 5083SOL    HW216691   4.406   5.732   2.959  1.1235 -0.0793  1.5852
 5084SOL     OW16692   2.151   0.034   1.657 -0.2170  0.0997 -0.3494
 5084SOL    HW116693   2.140   0.117   1.704  1.4362  0.9823 -1.4047
 5084SOL    HW216694   2.074   0.029   1.600 -1.2397 -0.0080  1.0004
 5085SOL     OW16695   7.629   6.638   1.385 -0.0114  0.5558  0.2537
 5085SOL    HW116696   7.603   6.547   1.373 -0.1282  0.5989  0.1798
 5085SOL    HW216697   7.583   6.685   1.316 -1.6748  0.9889  1.5838
 5086SOL     OW16698   5.316   6.854  10.557 -0.0836  0.3070 -0.2927
 5086SOL    HW116699   5.242   6.862  10.497  0.2781  0.8743 -0.6664
 5086SOL    HW216700   5.283   6.799  10.628 -0.9614  0.7979 -0.3064
 5087SOL     OW16701   1.732   1.485   7.393  0.4779 -0.2805  0.3027
 5087SOL    HW116702   1.707   1.465   7.303 -0.3027 -0.3353  0.5212
 5087SOL    HW216703   1.729   1.400   7.438  0.5625 -0.2070  0.4473
 5088SOL     OW16704   6.533   5.393  11.791  0.0671 -0.5366 -0.0097
 5088SOL    HW116705   6.574   5.345  11.863 -0.7410 -0.0447  0.8032
 5088SOL    HW216706   6.598   5.392  11.721  2.4470  2.1273  1.9453
 5089SOL     OW16707   0.400   2.935   4.919 -0.0627 -0.2258 -0.2061
 5089SOL    HW116708   0.469   2.982   4.966  1.4715 -1.7175 -0.8638
 5089SOL    HW216709   0.367   2.999   4.856 -0.5511  1.0660  1.3015
 5090SOL     OW16710   3.419   3.452  12.201  0.1293  0.0031  0.3423
 5090SOL    HW116711   3.382   3.368  12.173 -0.3247 -0.0597  1.0871
 5090SOL    HW216712   3.343   3.511  12.204  0.6743  0.8815 -1.6953
 5091SOL     OW16713   7.237   2.774  10.350  0.3194  0.4764 -0.1029
 5091SOL    HW116714   7.203   2.816  10.429 -0.6028  0.5578 -0.5297
 5091SOL    HW216715   7.213   2.682  10.359 -2.4638  0.9386 -1.5973
 5092SOL     OW16716   3.802   7.629   1.046  0.0089 -0.2044 -0.2416
 5092SOL    HW116717   3.733   7.689   1.018 -0.8848 -1.3770 -0.6516
 5092SOL    HW216718   3.883   7.677   1.032 -0.7218  1.6046  1.1779
 5093SOL     OW16719   4.310   5.095   2.241  0.0381  0.1625  0.2686
 5093SOL    HW116720   4.328   5.086   2.147  0.4060  3.0532 -0.0298
 5093SOL    HW216721   4.397   5.096   2.282 -0.1275 -1.2915  0.7063
 5094SOL     OW16722   3.018   5.759  10.873  0.1818  0.4961 -0.1687
 5094SOL    HW116723   2.969   5.762  10.791 -0.0323  0.1462 -0.0549
 5094SOL    HW216724   3.064   5.843  10.876  1.6532 -0.2009 -1.5352
 5095SOL     OW16725   7.210   3.039   3.967 -0.0566 -0.0092  0.2392
 5095SOL    HW116726   7.222   3.121   3.919 -1.1115 -0.0053 -0.0285
 5095SOL    HW216727   7.262   2.975   3.918  0.3836  0.3852  0.1784
 5096SOL     OW16728   6.150   7.259   9.668 -0.0123  0.3546 -0.3122
 5096SOL    HW116729   6.223   7.293   9.720  0.6075 -0.3564 -0.7041
 5096SOL    HW216730   6.111   7.190   9.723  1.3773 -1.2267 -1.2220
 5097SOL     OW16731   2.336   5.524   2.601 -0.3686  0.4076 -0.1868
 5097SOL    HW116732   2.385   5.539   2.682  1.5546 -1.7262 -0.8424
 5097SOL    HW216733   2.325   5.611   2.563 -0.9578  1.4110  2.1113
 5098SOL     OW16734   0.039   4.437   6.001  0.0901  0.0867 -0.1847
 5098SOL    HW116735   0.001   4.525   5.991  1.7959  0.8556 -0.2268
 5098SOL    HW216736  -0.032   4.378   5.977 -0.7174  1.4803 -1.4216
 5099SOL     OW16737   4.919   7.834  12.264 -0.1445 -0.2966  0.4144
 5099SOL    HW116738   5.011   7.856  12.283  0.1716 -0.6898 -0.6147
 5099SOL    HW216739   4.877   7.919  12.251  0.4414 -0.1641 -0.7233
 5100SOL     OW16740   4.752   4.186   9.361 -0.1616 -0.4808  0.3287
 5100SOL    HW116741   4.707   4.178   9.277 -2.3049  0.3592  1.3019
 5100SOL    HW216742   4.824   4.123   9.356  0.8221  0.7128 -2.7044
 5101SOL     OW16743   6.626   2.301   3.454  0.2327  0.0189  0.2482
 5101SOL    HW116744   6.659   2.358   3.524 -0.4111  0.4960  0.1752
 5101SOL    HW216745   6.534   2.326   3.444  0.4291  0.2928 -1.0992
 5102SOL     OW16746   4.628   4.745  11.507  0.0748 -0.4224  0.3589
 5102SOL    HW116747   4.572   4.764  11.583 -1.5198 -0.3026 -0.8093
 5102SOL    HW216748   4.649   4.830  11.471 -1.0913 -0.5363 -0.6526
 5103SOL     OW16749   2.712   5.675  12.327  0.1842  0.1127  0.3827
 5103SOL    HW116750   2.645   5.661  12.394  0.6147 -0.7945  0.6438
 5103SOL    HW216751   2.737   5.586  12.299 -0.2840  0.4779 -1.2863
 5104SOL     OW16752   5.695   1.175   6.598  0.1864 -0.4189  0.1333
 5104SOL    HW116753   5.723   1.266   6.593 -1.3595  0.0609 -0.3437
 5104SOL    HW216754   5.712   1.150   6.689  1.7684 -0.0805 -0.0269
 5105SOL     OW16755   5.732   2.707  11.078  0.1542 -0.0009 -0.0533
 5105SOL    HW116756   5.643   2.674  11.065  0.0730 -0.5181  1.5507
 5105SOL    HW216757   5.778   2.686  10.997 -1.3858  1.0833 -1.2885
 5106SOL     OW16758   0.664   6.013   0.684  0.4996  0.0105  0.9310
 5106SOL    HW116759   0.571   6.007   0.660  0.3863 -0.4918  1.4745
 5106SOL    HW216760   0.708   6.036   0.602  0.0222 -0.7823  0.4278
 5107SOL     OW16761   5.556   4.245   0.553  0.2313  0.7823 -0.1376
 5107SOL    HW116762   5.641   4.247   0.597  0.2139  1.2727 -0.1284
 5107SOL    HW216763   5.577   4.255   0.460  0.1703  1.1382 -0.1152
 5108SOL     OW16764   1.583   1.301   5.740  0.7210  0.0067 -0.2619
 5108SOL    HW116765   1.560   1.372   5.680  1.2683  1.2186  0.8846
 5108SOL    HW216766   1.546   1.329   5.824 -0.9117 -2.1243 -0.1959
 5109SOL     OW16767   6.918   6.697  11.009  0.1920 -0.1067  0.6095
 5109SOL    HW116768   6.860   6.655  11.073  0.9152 -0.5429  0.9951
 5109SOL    HW216769   6.936   6.783  11.047  1.2013 -0.6337  1.3789
 5110SOL     OW16770   2.870   4.517   1.002 -0.0484 -0.3784  0.0978
 5110SOL    HW116771   2.960   4.510   0.969  0.4174  1.0774  0.9874
 5110SOL    HW216772   2.847   4.609   0.990 -1.3926 -0.7081 -0.0062
 5111SOL     OW16773   5.972   6.265   6.758 -0.1913 -0.4036  0.1498
 5111SOL    HW116774   6.040   6.234   6.817 -1.1123 -0.5336  1.1730
 5111SOL    HW216775   6.020   6.309   6.688  1.0502 -2.6473 -0.4779
 5112SOL     OW16776   6.256   2.732   8.772 -0.5649  0.8847  0.2253
 5112SOL    HW116777   6.166   2.749   8.798 -0.1678  3.4990  0.1569
 5112SOL    HW216778   6.308   2.795   8.823  1.2377 -0.5191  0.2361
 5113SOL     OW16779   3.397   7.889   6.462  0.0110  0.2075  0.2380
 5113SOL    HW116780   3.321   7.944   6.443  0.5036  0.9956  0.4467
 5113SOL    HW216781   3.401   7.885   6.557 -0.2931 -0.5946  0.2201
 5114SOL     OW16782   5.705   7.561  10.699  0.3200 -0.5369 -0.6788
 5114SOL    HW116783   5.770   7.517  10.754 -1.3183 -2.2468  0.0113
 5114SOL    HW216784   5.633   7.581  10.759 -0.1969  0.4706 -1.6056
 5115SOL     OW16785   7.559   5.355   2.744  0.6106 -0.1934 -0.3609
 5115SOL    HW116786   7.559   5.317   2.656  2.4869  0.2114 -0.5813
 5115SOL    HW216787   7.475   5.328   2.782  1.1457 -3.1806 -1.0686
 5116SOL     OW16788   4.012   0.499   0.671 -0.4161  0.1761  0.0042
 5116SOL    HW116789   4.101   0.499   0.705 -0.4916  0.4051  0.2094
 5116SOL    HW216790   3.963   0.444   0.732  0.0568 -1.9088 -1.4194
 5117SOL     OW16791   4.278   5.339   6.939  0.0848 -0.3531 -0.1587
 5117SOL    HW116792   4.277   5.335   7.034  0.0303  0.3716 -0.1168
 5117SOL    HW216793   4.188   5.360   6.914  0.1735 -0.1799 -0.3411
 5118SOL     OW16794   5.215   3.140   7.194 -0.1349 -0.2866 -0.0743
 5118SOL    HW116795   5.130   3.097   7.186  0.9310 -3.3139  2.5506
 5118SOL    HW216796   5.199   3.216   7.250 -1.3605  0.1989 -1.0502
 5119SOL     OW16797   5.413   4.402   5.013 -0.1946 -0.2526  0.0636
 5119SOL    HW116798   5.444   4.360   5.093 -1.8034  1.0865  1.4509
 5119SOL    HW216799   5.491   4.407   4.958  0.9378 -1.2943  1.4899
 5120SOL     OW16800   4.768   1.830   3.269 -0.0489  0.0163 -0.4398
 5120SOL    HW116801   4.762   1.886   3.347  0.1877  0.4757 -0.7485
 5120SOL    HW216802   4.782   1.891   3.197  1.7858 -0.5212 -0.6026
 5121SOL     OW16803   4.584   4.448  10.856 -0.2244 -0.3827  0.1996
 5121SOL    HW116804   4.507   4.493  10.822 -0.4431 -1.1276 -0.3122
 5121SOL    HW216805   4.636   4.517  10.897 -0.3605  0.4040 -0.9125
 5122SOL     OW16806   1.473   7.025   0.832 -1.0100  0.4027  0.0405
 5122SOL    HW116807   1.494   7.116   0.808 -0.9157  0.0414 -1.3531
 5122SOL    HW216808   1.441   6.986   0.750 -2.3096 -0.4668  0.9179
 5123SOL     OW16809   6.047   1.345   8.074 -0.0492  0.6536 -0.1735
 5123SOL    HW116810   6.019   1.290   8.147  1.3281  1.4975  1.0532
 5123SOL    HW216811   5.991   1.422   8.080 -0.6261  0.2786 -0.6551
 5124SOL     OW16812   6.638   6.207  11.730 -0.3228  0.7021  0.5179
 5124SOL    HW116813   6.602   6.256  11.656 -1.9054  0.8701  1.3510
 5124SOL    HW216814   6.608   6.255  11.807 -0.2487 -0.4769  1.3080
 5125SOL     OW16815   4.408   1.577   2.335 -0.6504  0.2893 -0.6515
 5125SOL    HW116816   4.405   1.483   2.318 -0.2421  0.0858  0.3198
 5125SOL    HW216817   4.389   1.585   2.429 -0.5495  1.1651 -0.6991
 5126SOL     OW16818   2.638   4.937   2.988  0.0939 -0.0125 -0.3229
 5126SOL    HW116819   2.602   4.963   3.073  0.1592 -1.1825  0.0765
 5126SOL    HW216820   2.720   4.892   3.009  1.3923  1.8185 -1.1653
 5127SOL     OW16821   2.045   6.192   1.086 -0.3956 -0.5634  0.6051
 5127SOL    HW116822   2.033   6.119   1.147  1.5613 -0.1886  1.5135
 5127SOL    HW216823   2.139   6.195   1.070 -0.8950 -1.3051 -3.3787
 5128SOL     OW16824   6.959   6.903   6.690  0.0809 -0.2028  0.5334
 5128SOL    HW116825   6.980   6.810   6.681 -0.9820 -0.4796  0.7913
 5128SOL    HW216826   6.930   6.930   6.603 -0.5493 -0.3642  0.6891
 5129SOL     OW16827   5.134   3.486   3.705  0.2470  0.1363 -0.4226
 5129SOL    HW116828   5.100   3.508   3.618 -0.9287 -1.0659 -0.2882
 5129SOL    HW216829   5.080   3.413   3.734  0.8892  0.2646  1.1625
 5130SOL     OW16830   0.123   5.193   8.617  0.7461  0.3966 -0.4506
 5130SOL    HW116831   0.038   5.160   8.644  0.6006  1.8248  1.0410
 5130SOL    HW216832   0.107   5.234   8.532 -0.1976  1.1003  0.0455
 5131SOL     OW16833   7.718   3.757   4.413  0.4134  0.2408 -0.0285
 5131SOL    HW116834   7.753   3.679   4.456 -0.9944  0.0973  0.9150
 5131SOL    HW216835   7.645   3.724   4.360 -0.2405  0.9035  0.4418
 5132SOL     OW16836   7.613   2.031   7.210 -0.4635 -0.1439 -0.7067
 5132SOL    HW116837   7.693   1.993   7.248 -0.0507 -0.7214 -2.0726
 5132SOL    HW216838   7.542   1.993   7.260  0.0989  0.1045  0.3067
 5133SOL     OW16839   6.530   2.391   4.209  0.5667 -0.0101  0.4401
 5133SOL    HW116840   6.500   2.319   4.264 -0.7952  0.5609  0.5000
 5133SOL    HW216841   6.604   2.355   4.160 -0.2311 -1.5368  0.2771
 5134SOL     OW16842   4.939   2.513   2.208  0.3881  0.0668 -0.1481
 5134SOL    HW116843   4.869   2.462   2.249 -0.8398  0.9842 -1.0342
 5134SOL    HW216844   4.962   2.579   2.274  1.5063 -1.1562  0.7334
 5135SOL     OW16845   5.426   1.658   9.350  0.4790  0.0571  0.0830
 5135SOL    HW116846   5.412   1.566   9.373  0.6657 -0.0886 -0.3845
 5135SOL    HW216847   5.413   1.661   9.255  4.2431 -0.2369 -0.5870
 5136SOL     OW16848   6.247   1.077   8.582 -0.0458 -0.5470 -0.2660
 5136SOL    HW116849   6.186   1.008   8.558  1.1270 -1.9608  0.5798
 5136SOL    HW216850   6.333   1.043   8.556  0.4942  0.9256 -0.4967
 5137SOL     OW16851   7.513   2.225  10.148 -0.0801 -0.0043  0.0126
 5137SOL    HW116852   7.563   2.258  10.222  1.7825 -0.2466 -1.0737
 5137SOL    HW216853   7.511   2.297  10.086 -1.1216 -0.0011  0.0282
 5138SOL     OW16854   5.658   6.314   0.336 -0.1618  0.0468  0.2199
 5138SOL    HW116855   5.736   6.259   0.334 -0.5859 -0.5444 -0.7802
 5138SOL    HW216856   5.685   6.397   0.297  0.3013  0.3201  1.1004
 5139SOL     OW16857   0.203   6.193   3.799 -0.5524 -0.6093  0.1060
 5139SOL    HW116858   0.203   6.289   3.809 -0.3870 -0.4278 -1.3771
 5139SOL    HW216859   0.286   6.165   3.836 -0.0339 -0.0158 -0.5525
 5140SOL     OW16860   4.247   5.359   8.137 -0.0794  0.0131 -0.4256
 5140SOL    HW116861   4.302   5.435   8.151 -1.5533  0.9257  0.6949
 5140SOL    HW216862   4.300   5.300   8.083  2.1998  0.5742  1.0557
 5141SOL     OW16863   4.328   6.985   1.235 -0.3891  0.4105 -0.3264
 5141SOL    HW116864   4.323   6.915   1.170  1.1199  0.6277 -0.7137
 5141SOL    HW216865   4.385   7.051   1.196 -0.8411  1.3338  0.5200
 5142SOL     OW16866   6.382   0.915   2.291  0.5217 -0.3203  0.5902
 5142SOL    HW116867   6.303   0.960   2.322  1.7941  0.2009  3.4266
 5142SOL    HW216868   6.440   0.986   2.265  0.2865 -0.6777 -0.9608
 5143SOL     OW16869   4.383   5.248   0.043 -0.3628  0.1531 -0.7293
 5143SOL    HW116870   4.311   5.243  -0.020  0.1170  0.9939 -1.3708
 5143SOL    HW216871   4.446   5.307   0.002 -0.6150  1.8031  1.1143
 5144SOL     OW16872   6.558   2.402   5.768  0.1646 -0.4308  0.2331
 5144SOL    HW116873   6.588   2.375   5.854 -0.6194  1.0472  1.0020
 5144SOL    HW216874   6.636   2.397   5.712  1.1452  0.4569  1.4772
 5145SOL     OW16875   2.195   5.955   5.694 -0.1485  0.2033 -0.0014
 5145SOL    HW116876   2.202   5.897   5.618  0.4718  0.5359 -0.2128
 5145SOL    HW216877   2.121   6.012   5.674  0.5315  0.8526 -0.7745
 5146SOL     OW16878   0.836   1.986   5.726 -0.5455  0.0971  0.8454
 5146SOL    HW116879   0.837   1.967   5.820 -0.6013  0.4658  0.9204
 5146SOL    HW216880   0.786   1.914   5.688 -0.1446 -0.2937  1.0439
 5147SOL     OW16881   5.375   2.276   4.383 -0.2842  0.3862  0.1034
 5147SOL    HW116882   5.296   2.300   4.432 -1.0144  1.1811 -1.3908
 5147SOL    HW216883   5.440   2.341   4.408  0.6069 -1.3556  2.8109
 5148SOL     OW16884   1.219   2.347  10.922  0.2867  0.1847  0.1304
 5148SOL    HW116885   1.274   2.294  10.865 -1.9393 -2.2133  0.0372
 5148SOL    HW216886   1.191   2.420  10.867 -2.5855 -2.5504 -2.4477
 5149SOL     OW16887   1.140   3.910  10.643  0.4753 -0.0947 -0.0853
 5149SOL    HW116888   1.141   3.815  10.658  1.1540 -0.0783  0.0329
 5149SOL    HW216889   1.163   3.919  10.551  2.3054  0.0051  0.3424
 5150SOL     OW16890   3.001   7.601   7.434 -0.4473 -0.1330 -0.4345
 5150SOL    HW116891   3.092   7.616   7.410  0.3537  0.2923  2.4661
 5150SOL    HW216892   2.961   7.688   7.431 -0.0770  0.0917  0.6350
 5151SOL     OW16893   7.767   6.314   6.581 -0.2830 -0.6951 -0.3092
 5151SOL    HW116894   7.753   6.337   6.673 -0.4266 -1.2648 -0.1826
 5151SOL    HW216895   7.721   6.382   6.532 -0.0959 -0.3166  0.0398
 5152SOL     OW16896   2.234   4.645   2.610 -0.0350 -0.0741  0.5737
 5152SOL    HW116897   2.251   4.738   2.623 -0.7404  0.0619  0.5395
 5152SOL    HW216898   2.291   4.620   2.537  2.3706 -0.3534  2.3949
 5153SOL     OW16899   0.858   4.380   1.097  0.0208 -0.0596  0.1522
 5153SOL    HW116900   0.902   4.311   1.048 -0.9643 -0.5022 -0.1444
 5153SOL    HW216901   0.897   4.461   1.065 -1.1141 -0.2749 -1.9801
 5154SOL     OW16902   7.815   1.160   6.627 -0.5753 -0.2006 -0.0531
 5154SOL    HW116903   7.851   1.189   6.543 -0.7100  1.3608  0.3814
 5154SOL    HW216904   7.721   1.179   6.621 -0.6701 -0.5543  0.2610
 5155SOL     OW16905   5.883   7.857   4.008 -0.8748  0.3842  0.0617
 5155SOL    HW116906   5.921   7.782   4.053  1.8921  2.4284  1.3842
 5155SOL    HW216907   5.931   7.862   3.925 -0.9598  0.7969  0.0381
 5156SOL     OW16908   2.921   6.577  11.510 -0.2173 -0.4578  0.3030
 5156SOL    HW116909   2.931   6.664  11.548 -0.6627 -0.5109  0.5495
 5156SOL    HW216910   2.965   6.518  11.571 -0.3371 -0.4637  0.3830
 5157SOL     OW16911   7.514   7.583  11.773 -0.3846  1.3456  0.2913
 5157SOL    HW116912   7.548   7.632  11.848  2.2047  1.0443 -0.5843
 5157SOL    HW216913   7.556   7.625  11.697  1.9981 -2.0695 -0.5245
 5158SOL     OW16914   6.535   4.557   6.292 -0.1687  0.0914 -0.4799
 5158SOL    HW116915   6.529   4.553   6.387 -1.2532  1.0732 -0.4892
 5158SOL    HW216916   6.622   4.593   6.275  0.2552 -0.6316  0.1164
 5159SOL     OW16917   7.702   0.335   9.912  0.6528  0.2604 -0.4549
 5159SOL    HW116918   7.705   0.286   9.830 -0.7536 -1.2850  0.3516
 5159SOL    HW216919   7.774   0.397   9.906  2.3104 -1.6636 -1.7146
 5160SOL     OW16920   2.096   0.312   7.155 -0.1794 -0.1630  0.2845
 5160SOL    HW116921   2.161   0.371   7.194 -0.8818  1.0267 -0.2762
 5160SOL    HW216922   2.136   0.286   7.071  0.2416 -0.7035  0.6463
 5161SOL     OW16923   2.391   2.639   2.882 -0.1391  0.3307  0.0455
 5161SOL    HW116924   2.448   2.706   2.921 -0.8972  1.2330 -0.3710
 5161SOL    HW216925   2.386   2.662   2.790  1.4011 -1.6280 -0.5966
 5162SOL     OW16926   3.743   4.320   6.086 -0.2495 -0.3013 -0.2264
 5162SOL    HW116927   3.825   4.339   6.041  0.5376 -0.8290  0.9429
 5162SOL    HW216928   3.676   4.335   6.020  0.8948 -1.5345 -1.7471
 5163SOL     OW16929   3.313   7.113   3.230  0.8984  0.0551  0.1750
 5163SOL    HW116930   3.367   7.111   3.309 -1.2918 -2.2542  1.7784
 5163SOL    HW216931   3.266   7.197   3.235  1.3293  0.2557  0.9270
 5164SOL     OW16932   5.064   4.788  10.351 -0.1796 -0.1390 -0.1530
 5164SOL    HW116933   4.981   4.833  10.332  0.5307  0.9296 -0.8449
 5164SOL    HW216934   5.040   4.696  10.360 -1.4053  0.1174 -0.5894
 5165SOL     OW16935   7.046   1.493   5.630  0.1852 -0.5132 -0.3738
 5165SOL    HW116936   7.032   1.466   5.721 -1.1418  1.0916 -0.0585
 5165SOL    HW216937   7.112   1.562   5.635  0.1072 -0.4193 -0.6413
 5166SOL     OW16938   3.137   1.672  10.721  0.3764 -0.2448 -0.0953
 5166SOL    HW116939   3.183   1.628  10.649  1.5106 -0.2518  0.6055
 5166SOL    HW216940   3.047   1.640  10.715  0.2068  0.4723 -2.0715
 5167SOL     OW16941   0.102   2.472   1.955 -0.2662 -0.4471  0.0834
 5167SOL    HW116942   0.147   2.483   2.039 -0.0134 -1.0543  0.0297
 5167SOL    HW216943   0.016   2.437   1.978  0.3277 -2.0258  0.0092
 5168SOL     OW16944   2.960   1.641   8.214  0.2768 -0.1708 -0.1257
 5168SOL    HW116945   2.969   1.681   8.301  2.4218  0.1621 -0.4626
 5168SOL    HW216946   3.048   1.616   8.190 -0.3814 -0.8527 -1.9656
 5169SOL     OW16947   7.119   5.539   8.351 -0.0376 -0.2574 -0.0011
 5169SOL    HW116948   7.028   5.555   8.326  0.4237 -0.4007 -1.9407
 5169SOL    HW216949   7.170   5.602   8.300  0.9819 -0.4094  0.7962
 5170SOL     OW16950   3.082   7.439   4.320  0.2368  0.0156  0.0664
 5170SOL    HW116951   3.089   7.528   4.285  2.3441 -0.8799 -2.0524
 5170SOL    HW216952   3.160   7.429   4.375 -0.2429 -0.4094  0.6890
 5171SOL     OW16953   0.566   1.737   5.913  0.3370  0.4650  0.1087
 5171SOL    HW116954   0.487   1.760   5.865 -0.3649  0.4247  1.2297
 5171SOL    HW216955   0.637   1.749   5.849 -0.6518 -0.5196 -1.2309
 5172SOL     OW16956   5.076   1.017   2.485 -0.0113  0.0647  0.0420
 5172SOL    HW116957   5.051   0.951   2.549  0.2527  1.0769  1.2237
 5172SOL    HW216958   5.171   1.010   2.478  0.1910  1.2333  1.2500
 5173SOL     OW16959   7.138   5.025   5.347 -0.1707  0.6289  0.5382
 5173SOL    HW116960   7.184   5.055   5.426  1.0258 -0.3315  0.2231
 5173SOL    HW216961   7.119   4.933   5.364 -0.2797  0.5226 -0.1388
 5174SOL     OW16962   3.261   0.271  11.131 -0.3270 -0.1970  0.7426
 5174SOL    HW116963   3.231   0.315  11.210  2.7142  1.2792  1.2199
 5174SOL    HW216964   3.238   0.331  11.060 -1.4437 -0.6878  0.6611
 5175SOL     OW16965   2.097   6.659   5.402  0.8459  0.1670 -0.8929
 5175SOL    HW116966   2.157   6.677   5.330  1.6457  0.1071 -0.2503
 5175SOL    HW216967   2.135   6.585   5.449 -1.2182 -1.8172 -2.1354
 5176SOL     OW16968   1.503   1.997   5.622  0.3142 -0.2737 -0.0232
 5176SOL    HW116969   1.417   2.033   5.643  0.8196  0.0596  1.5955
 5176SOL    HW216970   1.557   2.016   5.699  1.9580 -0.1137 -1.1521
 5177SOL     OW16971   4.923   1.662   1.648 -0.0751 -0.8214 -0.0197
 5177SOL    HW116972   4.925   1.733   1.712  1.5261  0.1257 -1.0388
 5177SOL    HW216973   4.851   1.685   1.589 -0.8334 -1.1085  0.7821
 5178SOL     OW16974   3.175   7.168   4.195 -0.1654  0.1025 -0.0178
 5178SOL    HW116975   3.222   7.246   4.225  0.0780 -0.0105 -0.1049
 5178SOL    HW216976   3.187   7.104   4.264  1.8423 -0.7446 -1.0664
 5179SOL     OW16977   6.743   6.775   1.691  0.5610  0.3968 -0.0282
 5179SOL    HW116978   6.730   6.868   1.672 -0.4699  0.1632 -0.5149
 5179SOL    HW216979   6.655   6.742   1.709  1.2004  0.2735  3.8129
 5180SOL     OW16980   6.825   0.890   5.575 -0.2280  0.6606 -0.8029
 5180SOL    HW116981   6.883   0.819   5.604  0.6432  1.6064 -0.1799
 5180SOL    HW216982   6.752   0.845   5.533 -1.0324 -0.7868  1.8865
 5181SOL     OW16983   3.937   0.003   5.070 -0.8613 -0.1410 -0.3191
 5181SOL    HW116984   4.006  -0.003   5.136  0.2745 -1.9327 -1.6087
 5181SOL    HW216985   3.867   0.052   5.114  0.0864 -0.7399  2.0067
 5182SOL     OW16986   1.681   4.116   0.591  0.1203 -0.8819 -0.0247
 5182SOL    HW116987   1.718   4.117   0.503  3.2841  0.4792  1.1813
 5182SOL    HW216988   1.608   4.178   0.587  0.5729 -0.4011 -1.5402
 5183SOL     OW16989   0.867   2.630   3.043  0.1598 -0.2482  0.6991
 5183SOL    HW116990   0.813   2.637   2.964 -1.1776  0.8109  1.6544
 5183SOL    HW216991   0.853   2.713   3.089  1.9441 -0.3084  1.4212
 5184SOL     OW16992   5.041   3.258   5.268  0.4003 -0.4524  0.2585
 5184SOL    HW116993   5.131   3.286   5.251  0.6417 -0.5181  1.3520
 5184SOL    HW216994   5.009   3.228   5.183  0.8055  1.2178 -0.5346
 5185SOL     OW16995   3.265   1.583   3.110  0.1380 -0.2451 -0.5545
 5185SOL    HW116996   3.192   1.524   3.129  0.9286 -1.1230 -0.1266
 5185SOL    HW216997   3.308   1.545   3.034  2.0884 -1.6756  1.1331
 5186SOL     OW16998   7.828   0.866   0.868 -0.1078  0.6275 -0.0291
 5186SOL    HW116999   7.880   0.946   0.861 -1.1525  1.2758 -0.7133
 5186SOL    HW217000   7.801   0.864   0.960 -0.8096  1.5621 -0.1962
 5187SOL     OW17001   3.855   0.603   5.001 -0.1375  0.2226 -0.0476
 5187SOL    HW117002   3.937   0.572   4.963  1.2908  1.3144  1.9604
 5187SOL    HW217003   3.821   0.529   5.051 -0.7469 -0.4254 -1.3699
 5188SOL     OW17004   0.757   6.909  11.464  0.1322 -0.6441 -0.0889
 5188SOL    HW117005   0.798   6.853  11.530 -1.5350 -0.3593  1.2661
 5188SOL    HW217006   0.702   6.969  11.514 -0.2805  0.3786 -1.6849
 5189SOL     OW17007   7.049   6.993   2.252  0.1226  0.3502  0.2048
 5189SOL    HW117008   6.987   6.943   2.305  1.9506 -0.6196  1.5341
 5189SOL    HW217009   6.994   7.037   2.186 -1.7282 -2.3761 -0.2439
 5190SOL     OW17010   0.896   4.543   5.995  0.3574  0.2150  0.4142
 5190SOL    HW117011   0.972   4.561   5.939  0.2596  1.8286  0.7497
 5190SOL    HW217012   0.826   4.597   5.958  0.4863  1.9313  2.4519
 5191SOL     OW17013   0.136   0.125   0.274  0.1419  0.2037  0.8023
 5191SOL    HW117014   0.107   0.180   0.201 -1.4774  0.3321  1.4933
 5191SOL    HW217015   0.059   0.118   0.331  1.0529 -0.7485  1.9791
 5192SOL     OW17016   1.009   7.635   8.486 -0.1890 -0.3499 -0.4399
 5192SOL    HW117017   1.062   7.556   8.497  1.2430  0.5086 -0.8717
 5192SOL    HW217018   0.929   7.604   8.443  1.4260 -1.2628 -3.0540
 5193SOL     OW17019   4.773   4.420   0.273 -0.1609 -0.2638  0.3591
 5193SOL    HW117020   4.683   4.387   0.269 -0.0173 -0.7510  1.0723
 5193SOL    HW217021   4.826   4.344   0.295  0.4074  0.0605  0.1415
 5194SOL     OW17022   7.801   0.547  10.956 -0.3660  0.3867  0.0596
 5194SOL    HW117023   7.763   0.523  11.040  0.8282 -0.5210  0.3693
 5194SOL    HW217024   7.726   0.571  10.901 -1.1545  1.0527  1.3896
 5195SOL     OW17025   3.935   3.294   2.093 -0.0593 -0.6153  0.1332
 5195SOL    HW117026   3.925   3.368   2.152 -1.3697 -0.1764 -0.5844
 5195SOL    HW217027   3.857   3.240   2.108 -0.8724 -0.0700 -1.6892
 5196SOL     OW17028   4.518   2.876   8.335  0.3673 -0.1834 -0.2335
 5196SOL    HW117029   4.450   2.941   8.318 -0.7361 -1.0543  0.7272
 5196SOL    HW217030   4.563   2.908   8.413 -0.0130 -0.4442  0.0935
 5197SOL     OW17031   0.646   1.649   8.114  0.4080  0.0819  0.1625
 5197SOL    HW117032   0.728   1.681   8.076  0.2268  2.4966  1.5727
 5197SOL    HW217033   0.671   1.571   8.164  1.2653 -0.9779 -1.8143
 5198SOL     OW17034   7.320   6.535   7.801  0.6158  0.3175 -0.3450
 5198SOL    HW117035   7.345   6.474   7.731 -1.9473  0.2446 -1.2801
 5198SOL    HW217036   7.357   6.496   7.880  1.6949 -0.7752 -1.3445
 5199SOL     OW17037   2.244   0.978   3.982 -0.3299 -0.2198  0.4115
 5199SOL    HW117038   2.172   1.041   3.987  0.2709  0.4044  1.4632
 5199SOL    HW217039   2.322   1.027   4.008  0.4158 -1.0053 -0.2648
 5200SOL     OW17040   1.951   6.517  12.331  0.2472 -0.0689 -0.4834
 5200SOL    HW117041   1.923   6.426  12.334  3.5039 -1.2375 -0.7451
 5200SOL    HW217042   2.002   6.523  12.250  0.6638  1.7916 -0.1290
 5201SOL     OW17043   7.840   6.798   0.336  0.2673 -0.3789 -0.2246
 5201SOL    HW117044   7.804   6.813   0.248 -1.0087 -1.2088  0.1168
 5201SOL    HW217045   7.839   6.703   0.346  1.6647 -0.3694  0.2034
 5202SOL     OW17046   3.445   7.679  11.909 -0.0854  0.0655  0.2157
 5202SOL    HW117047   3.491   7.597  11.928 -2.9283 -1.7696 -0.1412
 5202SOL    HW217048   3.492   7.716  11.835  1.4310 -1.1239  0.5358
 5203SOL     OW17049   6.712   3.969   8.019  0.1191 -0.0013  0.0244
 5203SOL    HW117050   6.734   3.877   8.008  2.3375  0.2569  1.7455
 5203SOL    HW217051   6.632   3.968   8.071  0.7595 -0.9749  1.0300
 5204SOL     OW17052   0.487   7.951   5.499 -0.1320  0.2661 -0.2001
 5204SOL    HW117053   0.550   7.909   5.557 -1.4300 -0.3421  0.8050
 5204SOL    HW217054   0.448   8.020   5.552 -0.4053  0.5593 -0.7761
 5205SOL     OW17055   3.405   0.030  11.309 -0.0495 -0.2902 -0.1257
 5205SOL    HW117056   3.343  -0.032  11.347  0.5335 -1.9067 -1.6711
 5205SOL    HW217057   3.349   0.092  11.262 -0.5702 -0.9211 -0.3619
 5206SOL     OW17058   3.051   5.490  11.377 -1.2696  0.6858  0.3092
 5206SOL    HW117059   3.058   5.516  11.469 -1.6359  1.1654  0.2014
 5206SOL    HW217060   3.038   5.572  11.329  0.7876  0.6720 -0.3910
 5207SOL     OW17061   0.787   6.487   3.205 -0.1574  0.4912 -0.0621
 5207SOL    HW117062   0.819   6.567   3.164  4.4934 -0.2991  1.3672
 5207SOL    HW217063   0.749   6.516   3.288  1.4858  1.2864  0.4453
 5208SOL     OW17064   3.508   5.696   0.075 -0.0622  0.4964  0.3228
 5208SOL    HW117065   3.530   5.611   0.038  1.3595  0.7413  0.5696
 5208SOL    HW217066   3.533   5.759   0.007  0.6077  0.8224  0.8615
 5209SOL     OW17067   6.760   6.912   1.312 -0.3568 -0.3777  0.3091
 5209SOL    HW117068   6.763   6.969   1.235 -0.6300  0.0885  0.6366
 5209SOL    HW217069   6.673   6.928   1.350 -0.7168 -1.5325  0.0219
 5210SOL     OW17070   0.803   1.855   4.651 -0.0891  0.4624 -0.0104
 5210SOL    HW117071   0.748   1.784   4.618  1.0108 -0.5432  0.2568
 5210SOL    HW217072   0.784   1.929   4.592 -2.2594  0.4109  0.5165
 5211SOL     OW17073   5.846   7.066  12.365  0.1577  0.1471  0.0870
 5211SOL    HW117074   5.883   7.038  12.449 -0.0846 -1.2329 -0.2306
 5211SOL    HW217075   5.871   7.158  12.356 -0.0903  0.4227  1.8218
 5212SOL     OW17076   3.064   5.810   0.047 -0.3513 -0.1483 -0.5165
 5212SOL    HW117077   3.010   5.865  -0.010  0.9693  0.2681 -1.4228
 5212SOL    HW217078   3.001   5.753   0.092 -1.7920  2.1454  0.5592
 5213SOL     OW17079   4.864   5.194   4.504 -0.6414 -0.0421  0.0406
 5213SOL    HW117080   4.874   5.124   4.440 -1.1901 -1.2475  1.2233
 5213SOL    HW217081   4.853   5.149   4.588  0.4200  1.4740  1.0614
 5214SOL     OW17082   2.812   2.043   0.869  0.3487 -0.2792 -0.0541
 5214SOL    HW117083   2.739   2.081   0.819  0.3398 -1.0485 -0.6542
 5214SOL    HW217084   2.884   2.041   0.807  0.5162 -0.6848  0.1513
 5215SOL     OW17085   6.382   1.750   9.752 -0.2219  0.3915  0.2376
 5215SOL    HW117086   6.449   1.700   9.707  0.8157  1.0167  1.0416
 5215SOL    HW217087   6.303   1.696   9.746  0.5192 -0.6854 -0.0966
 5216SOL     OW17088   7.527   4.613   5.011  0.1986  0.1520 -0.9013
 5216SOL    HW117089   7.496   4.701   5.031  0.9962  0.2132  0.1267
 5216SOL    HW217090   7.460   4.555   5.047  0.6696  0.3041  0.2338
 5217SOL     OW17091   3.524   1.082   2.116  0.0648  0.3316  0.3305
 5217SOL    HW117092   3.434   1.055   2.102  0.1302  0.4789 -0.3979
 5217SOL    HW217093   3.534   1.084   2.211 -0.2706 -1.0935  0.4106
 5218SOL     OW17094   2.991   1.620   8.794  0.0795  0.1142 -0.2712
 5218SOL    HW117095   3.047   1.693   8.770  0.3127  0.2066  0.5072
 5218SOL    HW217096   2.955   1.645   8.880 -1.0951  0.0260 -0.7124
 5219SOL     OW17097   6.026   6.030   3.059  0.3788 -0.1229 -0.1316
 5219SOL    HW117098   5.995   6.028   3.149 -0.8287 -0.3270 -0.5375
 5219SOL    HW217099   5.986   5.953   3.018 -2.3257  2.0248 -1.8667
 5220SOL     OW17100   6.262   7.066  11.050  0.7521  0.6708 -0.2263
 5220SOL    HW117101   6.181   7.110  11.076 -0.0099 -0.6632 -0.2715
 5220SOL    HW217102   6.320   7.075  11.126  0.1445  0.6567  0.2444
 5221SOL     OW17103   7.428   3.619   2.503 -0.1019  0.0596 -0.4364
 5221SOL    HW117104   7.387   3.612   2.417 -0.7522  0.6392 -0.1827
 5221SOL    HW217105   7.424   3.713   2.524 -1.2083 -0.2510  0.8215
 5222SOL     OW17106   4.693   7.635   9.673  0.0856  0.4011  0.5102
 5222SOL    HW117107   4.683   7.668   9.762  2.0152 -1.2245  1.4207
 5222SOL    HW217108   4.735   7.707   9.625  1.1206  0.5117  1.5383
 5223SOL     OW17109   6.119   5.903   6.000 -0.0731 -0.3136 -0.7194
 5223SOL    HW117110   6.045   5.891   5.939  0.3622  0.8556 -1.5102
 5223SOL    HW217111   6.194   5.918   5.943  0.5240 -0.1592  0.1051
 5224SOL     OW17112   4.165   5.234  12.312 -0.7681  0.1786  0.0776
 5224SOL    HW117113   4.102   5.206  12.379  0.6412 -0.4283  1.2097
 5224SOL    HW217114   4.126   5.313  12.274 -1.7630  0.3627  1.3919
 5225SOL     OW17115   5.921   1.178   8.940  0.2809 -0.2386 -0.3490
 5225SOL    HW117116   5.998   1.210   8.894  0.2055  0.1059 -0.2370
 5225SOL    HW217117   5.950   1.096   8.981  1.0131  0.6080  0.8960
 5226SOL     OW17118   6.779   3.644  11.190  0.0087 -0.3133  0.4849
 5226SOL    HW117119   6.720   3.669  11.119 -0.1101 -0.5001  0.5173
 5226SOL    HW217120   6.766   3.712  11.257 -0.7200 -0.7504  0.8046
 5227SOL     OW17121   1.489   0.115   7.898  0.2203  0.9636 -0.7274
 5227SOL    HW117122   1.507   0.028   7.934  0.2236  1.6201  0.9134
 5227SOL    HW217123   1.513   0.107   7.805  0.3891 -0.7241 -0.5786
 5228SOL     OW17124   6.562   1.771   5.704  0.6167 -0.1140 -0.6434
 5228SOL    HW117125   6.471   1.778   5.730  1.1467  1.2152  1.0323
 5228SOL    HW217126   6.562   1.786   5.609 -0.8710 -0.1655 -0.6626
 5229SOL     OW17127   2.975   4.907   5.680  0.2753  0.0305 -0.4628
 5229SOL    HW117128   3.003   4.987   5.725  0.9992 -0.8801  0.7855
 5229SOL    HW217129   2.928   4.857   5.747  0.4793 -0.9155 -1.0050
 5230SOL     OW17130   4.743   5.877   1.765 -0.0743 -0.0860  0.2237
 5230SOL    HW117131   4.711   5.803   1.713  0.1192  0.4571 -0.6899
 5230SOL    HW217132   4.674   5.942   1.760  0.4724  0.4647 -0.4341
 5231SOL     OW17133   7.421   1.881   8.498 -0.1625  0.3367 -0.4646
 5231SOL    HW117134   7.427   1.918   8.585 -0.6587 -0.2320 -0.1786
 5231SOL    HW217135   7.476   1.937   8.443 -0.5547  1.2214  0.0354
 5232SOL     OW17136   7.189   7.415   9.200 -0.7829 -0.1276 -0.3368
 5232SOL    HW117137   7.266   7.360   9.183  0.5897  2.0968 -1.7972
 5232SOL    HW217138   7.225   7.503   9.214 -3.0568  0.9717 -1.0109
 5233SOL     OW17139   7.748   2.818   8.209 -0.0392 -0.1895 -0.3514
 5233SOL    HW117140   7.756   2.734   8.255 -0.9823 -0.6521 -1.0047
 5233SOL    HW217141   7.808   2.810   8.135  0.0411 -0.1880 -0.2876
 5234SOL     OW17142   1.377   7.303   7.775  0.5275  0.2118 -0.2445
 5234SOL    HW117143   1.385   7.396   7.755  3.0253  0.1286  0.1298
 5234SOL    HW217144   1.423   7.259   7.703 -0.7487 -0.7861 -0.5016
 5235SOL     OW17145   2.396   1.955   0.225 -0.2554  0.6600 -0.1165
 5235SOL    HW117146   2.453   1.886   0.191 -0.0699  0.9794 -0.4576
 5235SOL    HW217147   2.455   2.012   0.273 -0.3541  0.7722 -0.1300
 5236SOL     OW17148   1.771   0.404   5.999 -0.0417  0.5333 -0.6217
 5236SOL    HW117149   1.793   0.330   6.055  0.5374  0.0939 -1.4123
 5236SOL    HW217150   1.804   0.380   5.913  0.4810  1.8613 -0.8188
 5237SOL     OW17151   4.265   3.872   7.649 -0.3111 -0.2324 -0.7382
 5237SOL    HW117152   4.227   3.813   7.584 -0.1256 -0.8883 -0.2664
 5237SOL    HW217153   4.299   3.814   7.717 -2.2602  0.4673  0.9446
 5238SOL     OW17154   1.446   2.930   6.230 -0.4420 -0.1592 -0.6264
 5238SOL    HW117155   1.409   2.907   6.145  0.0518 -2.6941 -0.2494
 5238SOL    HW217156   1.394   2.881   6.293 -0.7313  1.6018  0.5755
 5239SOL     OW17157   5.093   1.437  11.174  0.2489 -0.5122 -0.1460
 5239SOL    HW117158   5.042   1.366  11.213 -1.0176  0.8168  0.7496
 5239SOL    HW217159   5.051   1.454  11.089 -0.8276  0.5185  0.5506
 5240SOL     OW17160   6.583   2.383   1.140 -0.0866 -0.2583  0.1181
 5240SOL    HW117161   6.531   2.321   1.088 -1.0307  1.8906 -1.6511
 5240SOL    HW217162   6.521   2.451   1.165  1.2919  0.9452  0.4040
 5241SOL     OW17163   0.629   6.880   8.356 -0.4666 -0.0752 -0.0340
 5241SOL    HW117164   0.700   6.818   8.368 -0.5445 -0.1192  0.2005
 5241SOL    HW217165   0.635   6.938   8.432 -0.7593 -0.1568  0.0514
 5242SOL     OW17166   0.256   3.595   4.007 -0.0812  0.0274 -0.3381
 5242SOL    HW117167   0.312   3.602   4.085 -0.6660  0.0872  0.0848
 5242SOL    HW217168   0.314   3.564   3.938  0.4599  0.0326  0.1115
 5243SOL     OW17169   7.295   1.134  12.328 -0.2432  0.1848 -0.3529
 5243SOL    HW117170   7.273   1.067  12.263 -1.6591  1.0950 -0.8672
 5243SOL    HW217171   7.276   1.217  12.284  0.1851  0.8851  0.7313
 5244SOL     OW17172   5.229   0.870   6.477 -0.0335  0.0189 -0.1771
 5244SOL    HW117173   5.320   0.873   6.507  0.3362 -0.4170 -1.2141
 5244SOL    HW217174   5.230   0.916   6.393 -0.4297 -1.4303 -1.0110
 5245SOL     OW17175   7.494   5.907  10.510  0.2255  0.3081 -0.5671
 5245SOL    HW117176   7.509   5.872  10.598 -0.2670 -0.4833 -0.7879
 5245SOL    HW217177   7.572   5.960  10.491  0.2214  0.6869  0.4336
 5246SOL     OW17178   5.444   6.230   7.502  0.1425  0.1426 -0.6909
 5246SOL    HW117179   5.399   6.282   7.435 -0.2983  2.0061  0.9586
 5246SOL    HW217180   5.375   6.206   7.564  0.9472  0.6160  0.4047
 5247SOL     OW17181   3.581   2.548   2.868 -0.1038  0.6513  0.0773
 5247SOL    HW117182   3.655   2.533   2.808  0.0319  1.2536  0.0915
 5247SOL    HW217183   3.509   2.575   2.811 -0.0347  1.0212  0.1683
 5248SOL     OW17184   7.238   7.524   3.990 -0.2811 -0.1047 -0.0790
 5248SOL    HW117185   7.221   7.437   4.026  0.0893 -0.9900 -1.9033
 5248SOL    HW217186   7.200   7.521   3.902  1.3699  0.9169 -0.8866
 5249SOL     OW17187   4.644   4.703   1.391 -0.0611 -0.1906 -0.1854
 5249SOL    HW117188   4.633   4.628   1.331 -0.2719  0.6282 -1.2014
 5249SOL    HW217189   4.676   4.774   1.335  0.7595  0.3075  0.8907
 5250SOL     OW17190   4.588   5.504   2.956 -0.2234  0.1122  0.0853
 5250SOL    HW117191   4.507   5.530   2.998 -0.5630 -1.1334  0.2123
 5250SOL    HW217192   4.640   5.585   2.953 -0.4559  0.3788  2.2421
 5251SOL     OW17193   5.930   1.521  12.219  0.2100  0.6081 -0.2567
 5251SOL    HW117194   5.983   1.444  12.239 -1.2704 -0.6326 -0.9778
 5251SOL    HW217195   5.842   1.488  12.205 -0.6038  2.5068 -0.0245
 5252SOL     OW17196   4.883   0.732   7.209  0.1841  0.0567 -0.4549
 5252SOL    HW117197   4.898   0.825   7.196 -2.1505  0.4172 -1.1088
 5252SOL    HW217198   4.925   0.690   7.135  1.2587  0.5647 -0.1511
 5253SOL     OW17199   7.193   3.984   3.676 -0.3683 -0.2468  0.4980
 5253SOL    HW117200   7.171   4.040   3.602 -0.8597 -1.0840 -0.0037
 5253SOL    HW217201   7.287   3.998   3.690 -0.6799  1.5696  1.1434
 5254SOL     OW17202   4.627   3.244  12.033  0.0548  0.1323 -0.3065
 5254SOL    HW117203   4.647   3.337  12.024  2.2030 -0.4865 -2.9684
 5254SOL    HW217204   4.684   3.214  12.104 -0.4210  0.7257  0.3496
 5255SOL     OW17205   0.792   0.037   8.884 -0.4812 -0.0381  0.0097
 5255SOL    HW117206   0.805   0.107   8.948 -1.1575 -1.0415  1.2882
 5255SOL    HW217207   0.821   0.075   8.801  2.6349  0.5621  1.2396
 5256SOL     OW17208   6.552   7.691   8.726  0.6173 -0.1400  0.0458
 5256SOL    HW117209   6.461   7.693   8.696  0.7814 -0.7983 -0.5350
 5256SOL    HW217210   6.582   7.782   8.720  0.1145  0.0155 -0.1209
 5257SOL     OW17211   1.287   4.675   7.107 -0.4253 -0.3278  0.2496
 5257SOL    HW117212   1.264   4.749   7.164  1.6973  1.0074 -0.4988
 5257SOL    HW217213   1.235   4.690   7.028  1.2645  1.4909 -0.6183
 5258SOL     OW17214   5.540   1.251   6.970  0.0143  0.0667  0.0880
 5258SOL    HW117215   5.600   1.320   7.001 -0.0478 -0.0327  0.4319
 5258SOL    HW217216   5.478   1.297   6.913 -0.9871  0.5789  1.5469
 5259SOL     OW17217   1.659   7.699   9.035 -0.1226  0.1129  0.1671
 5259SOL    HW117218   1.733   7.646   9.064 -0.3119 -0.1841  0.1075
 5259SOL    HW217219   1.699   7.768   8.982  0.0803 -0.2413 -0.1463
 5260SOL     OW17220   0.948   1.490   2.207 -0.2325  0.2740 -0.7489
 5260SOL    HW117221   0.908   1.404   2.222  0.4064  0.1184  0.1226
 5260SOL    HW217222   0.934   1.506   2.114 -0.8576 -0.5191 -0.8089
 5261SOL     OW17223   5.247   1.059  11.190 -0.4993  0.1923 -0.5556
 5261SOL    HW117224   5.179   1.069  11.124 -1.1858 -2.2320 -0.2979
 5261SOL    HW217225   5.279   0.970  11.180  1.2160  0.5958  0.6975
 5262SOL     OW17226   4.327   5.757   0.758  0.3636  0.5744 -0.1919
 5262SOL    HW117227   4.364   5.683   0.710 -0.2251 -0.0297  0.2651
 5262SOL    HW217228   4.314   5.725   0.847 -2.6490  0.2160 -0.6578
 5263SOL     OW17229   1.907   4.117   3.577 -0.3073 -0.1139  0.1845
 5263SOL    HW117230   1.821   4.082   3.598 -0.9128  2.1533  1.9128
 5263SOL    HW217231   1.912   4.114   3.482 -1.4299 -2.1240  0.1434
 5264SOL     OW17232   3.010   2.619  11.484  0.2364 -0.4718  0.1756
 5264SOL    HW117233   3.043   2.639  11.571  0.0361  1.6650 -0.1917
 5264SOL    HW217234   3.072   2.555  11.449  1.0244 -0.4210  1.4046
 5265SOL     OW17235   2.910   2.504  10.084 -0.0182  0.2664  0.1775
 5265SOL    HW117236   2.937   2.465  10.167  0.5618  0.7188  0.2144
 5265SOL    HW217237   2.835   2.560  10.106  0.0069  0.2260  0.3623
 5266SOL     OW17238   3.980   0.110  10.459 -0.4491  0.2942 -0.2164
 5266SOL    HW117239   3.894   0.090  10.423 -0.3169 -0.0170 -0.3607
 5266SOL    HW217240   4.042   0.075  10.395 -0.2124  0.7234 -0.2280
 5267SOL     OW17241   3.870   7.268   0.958 -0.0842 -0.2137 -0.3504
 5267SOL    HW117242   3.827   7.186   0.983 -0.0941 -0.5234 -1.3186
 5267SOL    HW217243   3.963   7.245   0.953  0.2175  0.4202  1.6025
 5268SOL     OW17244   6.884   7.372   3.436 -0.8384 -0.2271 -0.1676
 5268SOL    HW117245   6.884   7.365   3.340  0.6416 -0.3745 -0.1709
 5268SOL    HW217246   6.852   7.286   3.465  0.9710 -1.0680 -0.5162
 5269SOL     OW17247   5.979   2.178  10.781 -0.4572  0.3898  0.2529
 5269SOL    HW117248   6.032   2.114  10.734 -0.4479 -0.0801  0.8949
 5269SOL    HW217249   5.943   2.130  10.855  1.1442  1.6088  1.8963
 5270SOL     OW17250   7.462   4.259   3.176 -0.2733 -0.1801 -0.4327
 5270SOL    HW117251   7.454   4.332   3.115  1.0257  0.3235 -0.0189
 5270SOL    HW217252   7.517   4.292   3.247  1.7828 -2.0529 -1.0345
 5271SOL     OW17253   4.808   1.913   0.518 -0.0944  0.1282  0.0880
 5271SOL    HW117254   4.876   1.858   0.480 -0.1919 -0.1186  0.2639
 5271SOL    HW217255   4.727   1.886   0.474  0.0073  0.8407 -0.5544
 5272SOL     OW17256   4.177   7.940   6.105 -0.2957  0.0131 -0.0684
 5272SOL    HW117257   4.269   7.966   6.096 -0.2115  0.2457  1.1863
 5272SOL    HW217258   4.128   8.014   6.070 -0.0133 -0.1273 -0.7813
 5273SOL     OW17259   5.257   5.696   7.555 -0.1425  0.1983  0.0331
 5273SOL    HW117260   5.218   5.616   7.588 -1.2508  1.6019  2.3321
 5273SOL    HW217261   5.185   5.743   7.513  0.3765  0.2570 -0.8182
 5274SOL     OW17262   0.029   6.541   1.249  0.3813 -0.1055 -0.6057
 5274SOL    HW117263  -0.025   6.528   1.170  1.0599 -0.3405 -1.0347
 5274SOL    HW217264   0.023   6.635   1.266 -1.1618 -0.2901  0.0776
 5275SOL     OW17265   3.603   1.079   4.546  0.1661 -0.9987 -0.2075
 5275SOL    HW117266   3.694   1.052   4.553  0.2811 -0.9461 -1.2960
 5275SOL    HW217267   3.599   1.163   4.592  0.2904 -1.7681  1.2538
 5276SOL     OW17268   2.432   5.662  12.051  0.3697 -0.5473 -0.1699
 5276SOL    HW117269   2.346   5.660  12.092  0.7669 -1.8098  0.6510
 5276SOL    HW217270   2.482   5.725  12.103 -0.1175  0.3985 -0.8188
 5277SOL     OW17271   6.440   0.578   3.879  0.3713  0.1219 -0.4992
 5277SOL    HW117272   6.400   0.597   3.794  1.8646  2.1422 -0.8222
 5277SOL    HW217273   6.481   0.492   3.867 -1.5642 -0.7973 -0.9632
 5278SOL     OW17274   6.665   0.966   9.575  0.0841 -0.4837  0.3436
 5278SOL    HW117275   6.594   1.016   9.615  0.4348 -0.3722  0.8382
 5278SOL    HW217276   6.689   0.901   9.641  1.1762  0.1901  0.6238
 5279SOL     OW17277   6.836   0.256   9.080  0.5565  0.2232  0.4483
 5279SOL    HW117278   6.840   0.329   9.019  1.9624  3.1357  3.6669
 5279SOL    HW217279   6.745   0.252   9.109  0.4562  0.6587  0.1894
 5280SOL     OW17280   7.402   3.172   3.420 -0.0738 -0.2141 -0.0573
 5280SOL    HW117281   7.384   3.078   3.417  0.8964 -0.3937 -1.4048
 5280SOL    HW217282   7.376   3.203   3.333 -0.5090  0.7945  0.4260
 5281SOL     OW17283   2.186   2.633   9.236 -0.0608 -0.0082  0.0086
 5281SOL    HW117284   2.170   2.628   9.330  2.9566  0.7867  0.6832
 5281SOL    HW217285   2.114   2.684   9.201 -1.0167  0.0428  1.9595
 5282SOL     OW17286   1.250   1.725   2.810  0.1568  0.1100 -0.2261
 5282SOL    HW117287   1.290   1.641   2.830  0.5192 -0.0306 -1.4277
 5282SOL    HW217288   1.184   1.705   2.743 -1.8012  0.3739  1.4996
 5283SOL     OW17289   3.239   5.374   3.831 -0.5087  0.5870  0.2537
 5283SOL    HW117290   3.170   5.356   3.896  0.9557 -1.4343  1.3774
 5283SOL    HW217291   3.318   5.383   3.883  0.4392  0.6241 -1.1579
 5284SOL     OW17292   2.185   7.241   0.148  0.4504 -0.0700 -0.2493
 5284SOL    HW117293   2.106   7.270   0.194 -0.5993 -0.2554 -1.8450
 5284SOL    HW217294   2.243   7.209   0.217 -0.4051  1.1051  1.0751
 5285SOL     OW17295   4.116   5.478   8.352  0.2777 -0.1166  0.7588
 5285SOL    HW117296   4.162   5.435   8.280 -1.1071 -0.4215  0.0082
 5285SOL    HW217297   4.156   5.443   8.431  0.8407 -0.8938  0.1469
 5286SOL     OW17298   5.257   1.868   6.809  0.2553  0.0442  0.0187
 5286SOL    HW117299   5.343   1.875   6.852  0.3329 -0.8953  0.0343
 5286SOL    HW217300   5.278   1.855   6.717  0.1407 -0.5661  0.0762
 5287SOL     OW17301   3.535   5.886   2.599 -0.0978  0.2943  0.4076
 5287SOL    HW117302   3.470   5.849   2.539 -1.7363 -0.8987  2.7606
 5287SOL    HW217303   3.526   5.980   2.590 -0.8107  0.1358 -0.6715
 5288SOL     OW17304   3.087   2.089  10.368  0.8359 -0.3958 -0.1168
 5288SOL    HW117305   3.097   2.020  10.302 -0.4892 -0.8124  0.0753
 5288SOL    HW217306   3.092   2.170  10.318  2.7718 -0.5891 -0.2948
 5289SOL     OW17307   3.487   7.698   9.955 -0.2136 -0.0489  0.2713
 5289SOL    HW117308   3.516   7.638  10.023 -1.1800 -1.5358 -0.5575
 5289SOL    HW217309   3.566   7.718   9.905  0.0095 -1.3367  0.0680
 5290SOL     OW17310   2.828   1.358  11.351  0.3438 -0.0866 -0.5054
 5290SOL    HW117311   2.903   1.350  11.410  1.9079 -0.0039 -2.3862
 5290SOL    HW217312   2.801   1.267  11.335  0.3510 -0.1425 -0.2098
 5291SOL     OW17313   2.159   7.060   4.101 -0.0837 -0.1613 -0.1405
 5291SOL    HW117314   2.155   7.143   4.147 -0.2232 -1.3490  2.1339
 5291SOL    HW217315   2.218   7.076   4.026  1.6587  1.4250  1.4762
 5292SOL     OW17316   3.928   1.854   6.881 -0.0314 -0.4672  0.1050
 5292SOL    HW117317   3.979   1.933   6.861  0.7117 -0.7705  0.7484
 5292SOL    HW217318   3.884   1.833   6.799  0.4330  0.1405 -0.3121
 5293SOL     OW17319   5.007   1.673   3.405  0.3282  0.1418 -0.3087
 5293SOL    HW117320   4.951   1.703   3.334 -0.4186 -0.0375  0.1968
 5293SOL    HW217321   4.949   1.665   3.480  0.6694 -1.7769 -0.2072
 5294SOL     OW17322   3.364   1.489   2.856 -0.5731  0.1678  0.0074
 5294SOL    HW117323   3.307   1.460   2.784 -0.4406  0.4960 -0.2348
 5294SOL    HW217324   3.397   1.574   2.827 -0.2208  0.1304  0.2928
 5295SOL     OW17325   5.284   1.030   4.193 -0.4491 -0.0455  0.1125
 5295SOL    HW117326   5.276   1.028   4.288 -2.3055 -0.2549 -0.0181
 5295SOL    HW217327   5.281   0.938   4.167  0.6373 -0.0270 -0.1300
 5296SOL     OW17328   1.490   1.654   4.771 -0.4061  0.6345  0.2530
 5296SOL    HW117329   1.549   1.613   4.708  1.4761  0.5220  2.0136
 5296SOL    HW217330   1.539   1.728   4.806  0.0757 -1.2867  4.0728
 5297SOL     OW17331   5.994   4.271   4.461  0.0683 -0.1752 -0.3307
 5297SOL    HW117332   6.006   4.314   4.376  1.4500 -0.4619 -0.3021
 5297SOL    HW217333   5.931   4.201   4.444 -1.5838  1.3146 -0.5493
 5298SOL     OW17334   3.295   5.595   7.220 -0.3761 -0.0419 -0.3289
 5298SOL    HW117335   3.304   5.567   7.311 -0.2919 -1.7516 -0.8248
 5298SOL    HW217336   3.280   5.690   7.225  0.2938  0.0048  1.4136
 5299SOL     OW17337   1.237   7.320   4.318  0.5403 -0.1741 -0.1322
 5299SOL    HW117338   1.146   7.293   4.308  1.0617 -1.7743 -0.9463
 5299SOL    HW217339   1.285   7.237   4.330  1.7102  0.7156  1.9183
 5300SOL     OW17340   4.011   4.924   2.684 -0.2545 -0.3198  0.1945
 5300SOL    HW117341   4.066   4.945   2.608 -0.5614 -0.2672 -0.0166
 5300SOL    HW217342   4.041   4.983   2.753  1.7932 -2.1133  0.9288
 5301SOL     OW17343   6.699   1.337   3.417 -0.4089 -0.3436 -0.2390
 5301SOL    HW117344   6.607   1.317   3.428 -0.1194 -1.4106  0.3435
 5301SOL    HW217345   6.715   1.412   3.474 -0.4875 -1.4220  1.2438
 5302SOL     OW17346   1.305   7.331   8.086  0.8306 -0.8779 -0.4111
 5302SOL    HW117347   1.383   7.306   8.038  0.5836 -2.9361  0.1553
 5302SOL    HW217348   1.335   7.345   8.176  0.8618  0.3595 -0.6003
 5303SOL     OW17349   2.105   5.228   3.288 -0.2008  0.2614  0.3066
 5303SOL    HW117350   2.068   5.212   3.375  1.2529 -1.9406  0.5887
 5303SOL    HW217351   2.178   5.166   3.281 -0.1833  0.4812 -2.4305
 5304SOL     OW17352   7.383   5.995   5.310 -0.6385 -0.0382 -0.4583
 5304SOL    HW117353   7.385   5.916   5.363 -0.5934 -0.8486 -1.6283
 5304SOL    HW217354   7.474   6.008   5.283 -0.6770  0.3024 -0.4331
 5305SOL     OW17355   4.535   6.667   9.176 -0.1686  0.0810 -0.1632
 5305SOL    HW117356   4.458   6.651   9.231  1.1743  0.2940  1.8664
 5305SOL    HW217357   4.555   6.760   9.189 -2.2674  1.4044 -4.4165
 5306SOL     OW17358   1.309   2.511  11.131 -0.6431 -0.0170 -0.6400
 5306SOL    HW117359   1.306   2.440  11.067 -0.6327  1.1396 -1.9938
 5306SOL    HW217360   1.231   2.499  11.185 -0.9590 -0.7035 -1.2437
 5307SOL     OW17361   1.732   7.310   1.422  0.1959  0.4284  0.3842
 5307SOL    HW117362   1.823   7.340   1.417 -0.2954  1.8002 -1.3316
 5307SOL    HW217363   1.724   7.275   1.511  2.3552  0.3557  0.6244
 5308SOL     OW17364   6.537   1.769  11.710 -0.5161 -0.3355 -0.2305
 5308SOL    HW117365   6.495   1.796  11.628 -0.1005 -1.0734 -0.6923
 5308SOL    HW217366   6.536   1.848  11.764 -1.6952 -0.1071 -0.5644
 5309SOL     OW17367   6.487   7.669   6.175 -0.3854  0.1563  0.3038
 5309SOL    HW117368   6.394   7.660   6.195 -0.8418  0.1974 -1.5549
 5309SOL    HW217369   6.500   7.615   6.097 -0.0036  3.8186 -2.4525
 5310SOL     OW17370   0.092   2.375   6.485  0.1266 -0.0077 -0.3530
 5310SOL    HW117371   0.062   2.286   6.466 -1.8078  0.3230  0.9334
 5310SOL    HW217372   0.059   2.427   6.412 -0.2928 -0.0599 -0.2045
 5311SOL     OW17373   3.997   3.622   0.891  0.1859  0.2597 -0.0428
 5311SOL    HW117374   4.064   3.645   0.955  0.0351  0.0750  0.1856
 5311SOL    HW217375   3.976   3.705   0.848  0.7517  0.2688 -0.3048
 5312SOL     OW17376   5.038   6.570   2.466  0.6698  0.1950  0.2734
 5312SOL    HW117377   5.098   6.624   2.415 -0.9890 -0.1470 -2.2336
 5312SOL    HW217378   5.054   6.481   2.437 -1.3722  0.1537 -0.9507
 5313SOL     OW17379   2.275   3.464   5.186 -0.3724 -0.4057 -0.4055
 5313SOL    HW117380   2.305   3.518   5.113 -1.9493  1.0580 -0.0203
 5313SOL    HW217381   2.215   3.400   5.147 -1.2766  0.4263 -0.4011
 5314SOL     OW17382   7.178   7.117   8.363  0.2323  0.4325  0.1270
 5314SOL    HW117383   7.205   7.081   8.447 -1.3128 -0.5794  0.2218
 5314SOL    HW217384   7.094   7.160   8.381  0.1551  0.6916 -0.7933
 5315SOL     OW17385   2.746   6.029   5.163 -0.7403 -0.2492 -0.1764
 5315SOL    HW117386   2.670   6.048   5.107  0.2727  0.2720 -1.4436
 5315SOL    HW217387   2.765   5.937   5.146  0.1860  0.1612 -1.5483
 5316SOL     OW17388   0.355   3.040  12.064  0.5420  0.0193  0.6639
 5316SOL    HW117389   0.448   3.024  12.052  0.2651 -0.6770 -0.9239
 5316SOL    HW217390   0.318   2.954  12.088  0.3461  0.3393  1.5167
 5317SOL     OW17391   2.640   7.854  10.168  0.1243 -0.4799 -0.0173
 5317SOL    HW117392   2.624   7.906  10.089 -1.3446 -1.0798 -0.1380
 5317SOL    HW217393   2.678   7.917  10.230  0.7376  0.1340 -0.9899
 5318SOL     OW17394   5.393   2.988   6.285 -0.3457  0.1736 -0.2567
 5318SOL    HW117395   5.479   2.979   6.245 -1.2384 -2.1432 -1.8595
 5318SOL    HW217396   5.410   3.025   6.372  2.1038  0.9130 -0.9817
 5319SOL     OW17397   7.416   2.840  10.612  0.5533  0.0477 -0.4457
 5319SOL    HW117398   7.367   2.804  10.687 -0.9693  0.0887 -1.3721
 5319SOL    HW217399   7.446   2.763  10.565  1.1253  0.0218 -0.0492
 5320SOL     OW17400   0.164   1.393  12.185 -0.4493  0.0020 -0.0085
 5320SOL    HW117401   0.168   1.327  12.254  0.7672 -0.0553 -0.1119
 5320SOL    HW217402   0.088   1.369  12.133 -0.4742 -0.8722  0.4087
 5321SOL     OW17403   6.250   2.685   5.869 -0.2271  0.0554 -0.2784
 5321SOL    HW117404   6.247   2.632   5.790 -0.4194 -1.8204  0.9196
 5321SOL    HW217405   6.313   2.640   5.926  1.2904  2.3486 -0.0006
 5322SOL     OW17406   4.379   4.534   6.517  0.2549  0.2743 -0.3174
 5322SOL    HW117407   4.469   4.533   6.484  1.0318 -1.2324  1.6803
 5322SOL    HW217408   4.373   4.614   6.569 -0.2252  1.3875 -1.9923
 5323SOL     OW17409   3.877   4.710   3.513  0.6732  1.0841 -0.3805
 5323SOL    HW117410   3.833   4.721   3.597 -0.5383  0.4435 -0.8987
 5323SOL    HW217411   3.957   4.663   3.533 -1.7988 -3.5289 -0.0126
 5324SOL     OW17412   2.951   1.239   8.003 -0.1050 -0.4774 -0.2258
 5324SOL    HW117413   3.032   1.198   8.034 -0.6422 -1.9049 -0.6434
 5324SOL    HW217414   2.951   1.224   7.908 -0.1561  0.8159 -0.4502
 5325SOL     OW17415   3.960   6.591  11.711  0.1619 -0.4170 -0.5519
 5325SOL    HW117416   3.983   6.499  11.723 -0.2954 -0.8731 -2.6647
 5325SOL    HW217417   4.016   6.620  11.638  0.1847  0.9457 -0.0239
 5326SOL     OW17418   1.447   4.320  10.812 -0.1600  0.1902 -0.3155
 5326SOL    HW117419   1.356   4.333  10.838 -0.0464 -1.4297  1.0838
 5326SOL    HW217420   1.495   4.391  10.854 -0.9119  2.0262 -2.3698
 5327SOL     OW17421   0.720   2.587   8.116 -0.0076 -0.0103  0.2983
 5327SOL    HW117422   0.664   2.653   8.075 -0.1274 -0.6594 -0.6152
 5327SOL    HW217423   0.792   2.638   8.154  1.0015  0.5490 -2.1618
 5328SOL     OW17424   2.218   3.905   7.546 -0.0909 -0.2997 -0.2270
 5328SOL    HW117425   2.177   3.823   7.518  1.0837 -1.2525  0.7376
 5328SOL    HW217426   2.228   3.955   7.465 -0.1382 -1.4251 -0.9577
 5329SOL     OW17427   4.098   7.131   1.423 -0.5324  0.8565 -0.2963
 5329SOL    HW117428   4.083   7.070   1.350 -0.1700  1.2428 -0.7005
 5329SOL    HW217429   4.026   7.113   1.484  0.4012 -1.0001  0.3043
 5330SOL     OW17430   2.011   6.462  10.798 -0.5519 -0.1248 -0.6973
 5330SOL    HW117431   2.031   6.533  10.859 -0.8143 -0.3039 -0.4012
 5330SOL    HW217432   2.055   6.385  10.836 -2.0771 -0.6085  0.1603
 5331SOL     OW17433   6.109   0.413   8.040  0.1628  0.3452  0.0493
 5331SOL    HW117434   6.158   0.489   8.007  3.9004 -2.1166 -0.5994
 5331SOL    HW217435   6.048   0.392   7.969 -0.8895  2.5597  0.2007
 5332SOL     OW17436   1.540   5.870   7.132 -0.0288  0.5867 -0.0273
 5332SOL    HW117437   1.470   5.902   7.189 -1.2167 -0.8908 -0.5944
 5332SOL    HW217438   1.564   5.946   7.078  0.2001  1.6402  1.4836
 5333SOL     OW17439   4.896   7.478   7.266 -0.0139 -0.0335 -0.4268
 5333SOL    HW117440   4.965   7.527   7.311 -0.3357 -1.1323  1.3203
 5333SOL    HW217441   4.815   7.504   7.309 -0.3831 -0.7837 -0.6457
 5334SOL     OW17442   0.632   3.928  12.189  0.1400  0.0822 -0.2534
 5334SOL    HW117443   0.561   3.959  12.132 -0.1437 -0.8330 -0.4298
 5334SOL    HW217444   0.593   3.925  12.276 -0.0810 -0.5247 -0.3685
 5335SOL     OW17445   5.844   3.730   4.311 -0.1484 -0.4271 -0.8725
 5335SOL    HW117446   5.910   3.677   4.267  0.1434  0.5051 -1.5853
 5335SOL    HW217447   5.864   3.820   4.286 -0.5420  0.0522  0.4240
 5336SOL     OW17448   2.046   0.588   3.635  0.1770  0.4294 -0.0692
 5336SOL    HW117449   2.020   0.516   3.692  1.6429 -0.1747 -0.1140
 5336SOL    HW217450   2.035   0.666   3.689  1.3481 -0.1183  1.0225
 5337SOL     OW17451   7.562   5.857   6.093 -0.2808 -0.2920  0.2437
 5337SOL    HW117452   7.629   5.876   6.160 -1.6177  1.3628  1.1918
 5337SOL    HW217453   7.540   5.765   6.108 -0.2490 -0.0744  1.8325
 5338SOL     OW17454   3.873   7.743   8.450  0.5473 -0.1342 -0.0886
 5338SOL    HW117455   3.866   7.681   8.378 -0.5994 -2.2742  1.7419
 5338SOL    HW217456   3.961   7.729   8.485  0.7646  0.2404 -0.4731
 5339SOL     OW17457   6.882   6.138  11.849  0.2977  0.9057  0.3047
 5339SOL    HW117458   6.879   6.048  11.880 -0.1278  1.2940  1.4304
 5339SOL    HW217459   6.800   6.149  11.799  0.4696  0.6053 -0.0511
 5340SOL     OW17460   4.738   7.676   8.404  0.4572  0.4119  0.6234
 5340SOL    HW117461   4.693   7.737   8.463 -2.2857 -0.3038 -0.6052
 5340SOL    HW217462   4.733   7.717   8.318  1.5959 -0.0328  0.3237
 5341SOL     OW17463   6.006   4.150   7.914 -0.0715  0.0543 -0.2898
 5341SOL    HW117464   6.085   4.131   7.863  0.8368 -1.2843  1.4910
 5341SOL    HW217465   5.967   4.064   7.929 -0.9271  0.5361  0.3164
 5342SOL     OW17466   6.487   7.811   5.080  0.3121 -0.2012 -0.2580
 5342SOL    HW117467   6.498   7.763   5.162 -1.6335 -0.5379 -0.1447
 5342SOL    HW217468   6.404   7.779   5.044  0.3167  1.1119 -1.5370
 5343SOL     OW17469   2.031   0.618   1.043 -0.0556 -0.2588  0.3897
 5343SOL    HW117470   2.027   0.571   0.960 -2.0428  0.1696  0.1790
 5343SOL    HW217471   1.945   0.603   1.083 -0.1470  1.7832  1.0769
 5344SOL     OW17472   5.948   3.963   4.201  0.6973  0.5843 -0.1874
 5344SOL    HW117473   5.904   3.976   4.117  1.7587 -0.6306 -0.9653
 5344SOL    HW217474   5.915   4.034   4.257 -2.1131 -0.1645 -0.7614
 5345SOL     OW17475   0.858   7.456   7.730  0.0041 -0.3040 -0.3149
 5345SOL    HW117476   0.784   7.401   7.703  1.8336 -1.6621 -3.0186
 5345SOL    HW217477   0.928   7.393   7.748  1.2382  1.0329 -0.3186
 5346SOL     OW17478   4.000   4.881   3.087  0.9474  0.3610 -0.0377
 5346SOL    HW117479   3.934   4.941   3.053  3.2620  3.4991  0.5458
 5346SOL    HW217480   3.959   4.841   3.164 -0.7298  1.1141 -0.4943
 5347SOL     OW17481   0.415   2.075   7.767 -0.4307  0.6761 -0.9664
 5347SOL    HW117482   0.341   2.133   7.749 -0.4272  0.9806 -0.0500
 5347SOL    HW217483   0.490   2.116   7.723 -0.8944  0.0385 -2.4382
 5348SOL     OW17484   5.628   7.137   2.346  0.3207  0.5978 -0.2049
 5348SOL    HW117485   5.659   7.170   2.430  0.1725 -0.4949  0.3006
 5348SOL    HW217486   5.567   7.204   2.314 -0.8359  0.3192  1.3150
 5349SOL     OW17487   2.700   0.631   1.399  0.2474  0.3492  0.4568
 5349SOL    HW117488   2.664   0.617   1.311  1.3392 -1.0995  0.2004
 5349SOL    HW217489   2.630   0.604   1.458 -0.1369  0.3643  0.0151
 5350SOL     OW17490   0.677   5.736   9.552  0.4696  0.2176 -0.3450
 5350SOL    HW117491   0.745   5.800   9.531  1.5688 -1.5806 -2.6264
 5350SOL    HW217492   0.600   5.768   9.504  1.0889 -0.2484 -1.6999
 5351SOL     OW17493   6.189   1.995  10.625  0.2383 -1.0334  0.0238
 5351SOL    HW117494   6.264   2.050  10.605 -0.4360 -0.7848 -1.9519
 5351SOL    HW217495   6.166   1.954  10.542 -1.9963 -0.8708  0.5083
 5352SOL     OW17496   4.751   0.491  11.083  0.1695  0.7273 -0.2301
 5352SOL    HW117497   4.693   0.514  11.011  0.6073 -1.5471 -1.4240
 5352SOL    HW217498   4.692   0.468  11.155 -0.5735 -2.1649 -1.6189
 5353SOL     OW17499   1.264   2.177   5.690 -0.0203 -0.4482  0.3366
 5353SOL    HW117500   1.205   2.228   5.635  1.7023  0.7552 -0.4798
 5353SOL    HW217501   1.330   2.240   5.719  1.9068 -2.0896 -0.2865
 5354SOL     OW17502   1.387   3.259   8.446  0.0842 -0.1829 -0.0489
 5354SOL    HW117503   1.384   3.223   8.357  2.6583 -0.5546 -0.0572
 5354SOL    HW217504   1.425   3.346   8.435 -2.2734  1.0084  0.4468
 5355SOL     OW17505   0.367   6.743   0.732 -0.1465  1.1202 -0.3888
 5355SOL    HW117506   0.325   6.824   0.704 -2.5278  0.1250  0.0497
 5355SOL    HW217507   0.311   6.710   0.803  0.5532 -1.0541 -0.7519
 5356SOL     OW17508   6.984   6.968  12.211 -0.2475  0.2022  0.0120
 5356SOL    HW117509   7.065   6.919  12.197 -0.0936  0.3699  0.2952
 5356SOL    HW217510   6.969   6.963  12.306 -0.8508 -0.2711 -0.1032
 5357SOL     OW17511   4.254   6.919   6.902  0.4697  0.9944 -0.0343
 5357SOL    HW117512   4.308   6.947   6.828 -0.0730  3.6073  0.4524
 5357SOL    HW217513   4.221   7.001   6.940  0.3410 -0.2550  2.8156
 5358SOL     OW17514   2.065   4.237   0.475 -1.4325 -0.3082 -0.4390
 5358SOL    HW117515   2.006   4.238   0.551 -0.6895  0.4423  0.1474
 5358SOL    HW217516   2.032   4.166   0.421 -0.9990 -2.0273  1.4052
 5359SOL     OW17517   3.951   4.285  12.134 -0.1508  0.6768 -0.1379
 5359SOL    HW117518   3.976   4.353  12.197 -0.3552 -0.0140  0.6881
 5359SOL    HW217519   4.034   4.257  12.096 -0.0683  1.4396 -0.5604
 5360SOL     OW17520   7.504   4.158   5.620 -0.4653  0.4176  0.3057
 5360SOL    HW117521   7.554   4.195   5.547 -0.2513 -0.5001 -0.0301
 5360SOL    HW217522   7.570   4.123   5.680 -0.6567  0.6606  0.6623
 5361SOL     OW17523   6.223   7.439   1.579  0.2852 -0.3926 -0.1094
 5361SOL    HW117524   6.156   7.374   1.601  0.0044 -0.7996 -1.9379
 5361SOL    HW217525   6.176   7.522   1.576  0.0558 -0.5293 -0.4126
 5362SOL     OW17526   6.015   0.982   9.805  0.0252  0.5280 -0.0260
 5362SOL    HW117527   6.086   0.944   9.857  0.9954 -0.5416 -2.0388
 5362SOL    HW217528   6.047   1.068   9.780  0.2723  0.3758 -0.2387
 5363SOL     OW17529   1.394   7.721   7.429 -0.0545  0.3915  0.2630
 5363SOL    HW117530   1.370   7.782   7.498  2.8802  1.1512  0.7618
 5363SOL    HW217531   1.373   7.767   7.348 -0.1639  1.0188  0.6378
 5364SOL     OW17532   6.802   4.767   4.178 -0.4172  0.2838 -0.6422
 5364SOL    HW117533   6.887   4.773   4.134 -0.3939 -0.2218 -0.6742
 5364SOL    HW217534   6.738   4.793   4.112 -0.2914  0.6295 -0.6293
 5365SOL     OW17535   7.651   1.617   9.085 -0.5061 -0.0320  0.2277
 5365SOL    HW117536   7.579   1.565   9.050  0.7455 -1.3019 -0.5502
 5365SOL    HW217537   7.643   1.702   9.042 -0.3470 -0.8397 -1.4577
 5366SOL     OW17538   6.489   2.989   2.601 -0.4917 -0.3833 -0.0047
 5366SOL    HW117539   6.502   2.915   2.543 -1.1595 -0.5828  0.0989
 5366SOL    HW217540   6.460   2.951   2.684 -0.1394 -0.0589  0.2763
 5367SOL     OW17541   6.097   6.321   1.458  0.3482  0.1988  0.3285
 5367SOL    HW117542   6.036   6.364   1.518 -1.8307 -0.0656 -1.5606
 5367SOL    HW217543   6.082   6.227   1.471  0.6246  0.1198  0.1003
 5368SOL     OW17544   7.295   1.119   3.611 -0.4320 -0.6520 -0.1298
 5368SOL    HW117545   7.326   1.121   3.701  1.6892 -1.3786 -0.7752
 5368SOL    HW217546   7.305   1.210   3.580  2.1654 -0.9993 -0.5832
 5369SOL     OW17547   0.322   0.858   5.744  0.1703  0.2079  0.1377
 5369SOL    HW117548   0.370   0.792   5.694 -1.9914 -0.7987 -0.7262
 5369SOL    HW217549   0.290   0.811   5.821 -0.8584  0.3919 -0.1687
 5370SOL     OW17550   5.446   2.700   0.419  0.3992 -0.0109 -0.2466
 5370SOL    HW117551   5.505   2.665   0.485  0.9639  0.6785 -0.3746
 5370SOL    HW217552   5.447   2.636   0.348  1.1371  0.0841 -0.3272
 5371SOL     OW17553   5.908   6.608   5.376  0.3920 -0.0059 -0.2958
 5371SOL    HW117554   5.940   6.527   5.335 -0.1306 -0.8344  0.9052
 5371SOL    HW217555   5.919   6.674   5.308  2.0092 -0.8252 -0.8805
 5372SOL     OW17556   7.569   1.794   9.428  0.3713 -0.0214 -0.3809
 5372SOL    HW117557   7.508   1.844   9.373  0.2499 -1.0255 -1.1924
 5372SOL    HW217558   7.598   1.856   9.494 -0.5297  0.8458 -0.7707
 5373SOL     OW17559   6.298   5.217  10.732 -0.5433 -0.1740 -0.0746
 5373SOL    HW117560   6.243   5.208  10.654  0.0299  0.9319 -0.6207
 5373SOL    HW217561   6.277   5.304  10.766  0.4524  0.0281  0.0325
 5374SOL     OW17562   6.423   6.082   4.896 -0.0143 -0.0227  0.0417
 5374SOL    HW117563   6.393   6.155   4.950  0.2087  0.0661  0.0468
 5374SOL    HW217564   6.377   6.005   4.931 -0.1355  0.0907  0.1306
 5375SOL     OW17565   2.873   7.014   1.247 -0.3604  0.0954 -0.0700
 5375SOL    HW117566   2.824   7.062   1.314  0.6703 -0.0437  0.8144
 5375SOL    HW217567   2.823   6.934   1.233  0.0297 -0.4482  1.4565
 5376SOL     OW17568   3.757   1.658   4.680 -0.1648 -0.3795 -0.4452
 5376SOL    HW117569   3.758   1.687   4.771  0.9252 -0.2859 -0.4710
 5376SOL    HW217570   3.730   1.734   4.630  0.6327  0.0037 -0.3155
 5377SOL     OW17571   3.497   7.202   6.718  0.0009  0.1135 -0.3931
 5377SOL    HW117572   3.583   7.237   6.741  0.0848 -0.3924  0.1117
 5377SOL    HW217573   3.454   7.187   6.803 -0.1002 -0.7961 -0.5924
 5378SOL     OW17574   4.257   5.500   7.776  0.3817  0.5766  0.0273
 5378SOL    HW117575   4.248   5.585   7.732  1.3080  1.0872  0.8016
 5378SOL    HW217576   4.331   5.511   7.835  0.3061 -0.6793  0.3787
 5379SOL     OW17577   7.135   1.797   7.405 -0.2042 -0.2030  0.5253
 5379SOL    HW117578   7.096   1.761   7.484 -1.5518 -2.9553 -1.2310
 5379SOL    HW217579   7.177   1.722   7.363 -0.4807  0.9073 -1.8876
 5380SOL     OW17580   3.136   0.225   0.241 -0.0832 -0.5327 -0.3319
 5380SOL    HW117581   3.222   0.219   0.284 -0.1371  0.8093  0.0052
 5380SOL    HW217582   3.098   0.137   0.252  0.4341 -0.5920  1.2578
 5381SOL     OW17583   2.300   5.573   8.442  0.0575  0.4928 -0.4289
 5381SOL    HW117584   2.289   5.541   8.531 -0.4596 -0.5181 -0.8446
 5381SOL    HW217585   2.360   5.647   8.451 -0.8509  1.1166  0.8932
 5382SOL     OW17586   2.427   7.646   4.555 -0.1120  0.2780  0.1449
 5382SOL    HW117587   2.485   7.622   4.482 -0.8191 -2.0886  0.3012
 5382SOL    HW217588   2.477   7.623   4.633  0.2344  1.8755  0.4370
 5383SOL     OW17589   6.587   0.497  12.185 -0.3194 -0.2428 -0.2502
 5383SOL    HW117590   6.536   0.417  12.176  0.2477 -0.6161 -0.1863
 5383SOL    HW217591   6.673   0.468  12.215 -0.0753  0.3804 -0.3233
 5384SOL     OW17592   4.430   1.017   5.660 -0.0873  0.1559  0.2091
 5384SOL    HW117593   4.342   0.985   5.640  0.0385  0.0242 -0.1342
 5384SOL    HW217594   4.442   1.092   5.601  0.6304 -0.7807 -0.8828
 5385SOL     OW17595   2.911   7.204   9.645  1.0172  0.3265  0.0459
 5385SOL    HW117596   2.861   7.278   9.612 -1.4328 -0.6204  1.3911
 5385SOL    HW217597   2.896   7.134   9.581 -0.7842 -0.4300  1.2257
 5386SOL     OW17598   1.854   3.426   9.560 -0.2149  0.5425  0.5420
 5386SOL    HW117599   1.808   3.510   9.572 -1.5592 -0.4083  2.7004
 5386SOL    HW217600   1.808   3.385   9.487 -1.5790  0.4377  1.4228
 5387SOL     OW17601   6.150   0.332   9.849  0.1133  0.3520  0.0635
 5387SOL    HW117602   6.243   0.350   9.864  0.1090  0.0165  0.5211
 5387SOL    HW217603   6.111   0.334   9.936 -0.2168 -0.0230 -0.0740
 5388SOL     OW17604   1.275   6.649   6.030  0.7236  0.1859  0.4262
 5388SOL    HW117605   1.227   6.721   6.071  0.5712 -0.7786  2.0455
 5388SOL    HW217606   1.214   6.614   5.965 -0.4292 -0.3800  1.7494
 5389SOL     OW17607   6.511   1.776  12.272  0.0022  0.2392 -0.1627
 5389SOL    HW117608   6.529   1.786  12.178 -1.8907 -1.0437 -0.7201
 5389SOL    HW217609   6.433   1.829  12.287 -0.4135 -0.5106  0.4105
 5390SOL     OW17610   0.926   2.548   2.360 -0.2271  0.0807  0.4350
 5390SOL    HW117611   0.971   2.493   2.424  1.3234  0.2837 -0.4323
 5390SOL    HW217612   0.971   2.531   2.277 -1.3403  0.7962 -0.3491
 5391SOL     OW17613   2.624   3.497  10.373  0.0471 -0.1249  0.3063
 5391SOL    HW117614   2.645   3.535  10.458 -0.0333  0.1417  0.2102
 5391SOL    HW217615   2.530   3.481  10.376 -0.1665  0.9213 -0.1270
 5392SOL     OW17616   5.912   0.954   0.494  0.0550  0.3814  0.5693
 5392SOL    HW117617   5.845   0.922   0.555 -1.1561  1.8431  0.0773
 5392SOL    HW217618   5.862   1.001   0.427  1.1729 -2.2434 -2.3609
 5393SOL     OW17619   5.059   5.475   9.663  0.7539  0.1842  0.9629
 5393SOL    HW117620   5.066   5.444   9.573 -1.9041  0.7261  0.4836
 5393SOL    HW217621   5.089   5.566   9.659 -0.4011  0.5595  0.3467
 5394SOL     OW17622   2.801   0.879   1.644 -0.0183 -0.2156 -0.4615
 5394SOL    HW117623   2.824   0.790   1.672  0.3714  0.4816  1.6671
 5394SOL    HW217624   2.778   0.924   1.726  2.6085  2.4623 -1.0288
 5395SOL     OW17625   1.580   5.638   3.004  0.1223 -0.3945 -0.0218
 5395SOL    HW117626   1.499   5.612   2.961  0.3058 -0.8953 -0.0705
 5395SOL    HW217627   1.554   5.707   3.064 -0.5529 -1.3395  0.8053
 5396SOL     OW17628   2.745   2.160   2.784  0.6092  0.1313  0.6024
 5396SOL    HW117629   2.735   2.248   2.745 -0.0185 -0.1564  0.0890
 5396SOL    HW217630   2.828   2.128   2.749  0.8627  0.5419  0.8258
 5397SOL     OW17631   0.607   5.775   4.966 -0.5001 -0.6372  0.2475
 5397SOL    HW117632   0.667   5.751   4.894  0.9861  0.3079  1.1249
 5397SOL    HW217633   0.662   5.770   5.044 -1.9425 -1.0344  1.2601
 5398SOL     OW17634   3.072   5.026   6.064  0.6146  0.1084 -0.3717
 5398SOL    HW117635   3.164   5.000   6.065 -0.0568 -2.5356  0.0785
 5398SOL    HW217636   3.044   5.020   6.155  0.1805  1.9056 -0.3356
 5399SOL     OW17637   2.373   4.975   5.130  0.1812 -0.1318  0.3988
 5399SOL    HW117638   2.300   4.919   5.105  0.5062 -1.0446  1.4259
 5399SOL    HW217639   2.445   4.915   5.150  1.6194  0.7693 -1.6550
 5400SOL     OW17640   6.048   6.067   1.005 -0.0290  0.0971  0.1052
 5400SOL    HW117641   6.064   6.080   0.911 -0.6241 -0.7696 -0.1322
 5400SOL    HW217642   6.004   5.982   1.010  2.3631 -1.1878  1.4176
 5401SOL     OW17643   0.710   6.820  11.227 -0.6424 -0.7691 -0.1098
 5401SOL    HW117644   0.800   6.827  11.195 -0.3468 -0.3854  0.7772
 5401SOL    HW217645   0.713   6.855  11.316 -2.1550  1.5824 -0.9087
 5402SOL     OW17646   1.607   6.168   0.900 -0.1238 -0.0724 -0.0399
 5402SOL    HW117647   1.518   6.143   0.923 -0.2580 -0.2662 -0.7439
 5402SOL    HW217648   1.601   6.263   0.885  0.4158  0.4894  2.7637
 5403SOL     OW17649   3.855   4.418  10.728  0.0157 -1.1742 -0.3401
 5403SOL    HW117650   3.844   4.389  10.638 -0.2712 -0.4581 -0.5429
 5403SOL    HW217651   3.817   4.506  10.730 -0.6908 -1.4722  0.6494
 5404SOL     OW17652   6.965   2.429  10.608  0.5469  0.6230  0.1697
 5404SOL    HW117653   6.952   2.364  10.539 -0.7609  0.2691  0.7095
 5404SOL    HW217654   6.904   2.500  10.586  0.2419  0.5835  0.8664
 5405SOL     OW17655   0.867   3.956   2.187  0.4171  0.3494 -0.1633
 5405SOL    HW117656   0.780   3.922   2.164  0.6423 -1.7188  1.6813
 5405SOL    HW217657   0.891   3.907   2.266  1.5900  3.6434  1.7175
 5406SOL     OW17658   5.731   0.835   6.773 -0.5164 -1.0204 -0.1913
 5406SOL    HW117659   5.771   0.902   6.828 -0.4887 -0.1174 -1.2759
 5406SOL    HW217660   5.665   0.794   6.828 -0.1409 -0.4920  0.6665
 5407SOL     OW17661   4.922   6.583   1.476  0.8473  0.4705 -0.6710
 5407SOL    HW117662   4.967   6.499   1.469 -1.5251 -1.2655  2.3405
 5407SOL    HW217663   4.830   6.562   1.460  0.0154  2.1652  1.4086
 5408SOL     OW17664   6.527   6.924   7.127  0.0217  0.1000 -0.2978
 5408SOL    HW117665   6.525   6.988   7.056 -0.4293 -0.0729 -0.4475
 5408SOL    HW217666   6.517   6.840   7.084 -0.6946  0.0260 -0.0003
 5409SOL     OW17667   2.999   7.322   3.849  0.5078 -0.1631 -0.5404
 5409SOL    HW117668   3.039   7.235   3.839 -0.8006 -0.7505 -0.8396
 5409SOL    HW217669   3.009   7.363   3.763  0.6512 -0.2191 -0.5514
 5410SOL     OW17670   4.023   3.187  10.840  0.1586 -0.5146  0.3797
 5410SOL    HW117671   3.941   3.225  10.871  1.0837  0.5937  1.5949
 5410SOL    HW217672   3.998   3.134  10.764 -1.3747  1.5806 -0.6696
 5411SOL     OW17673   6.873   5.414   2.809  0.0465  0.2271 -0.1416
 5411SOL    HW117674   6.863   5.405   2.904  2.2185  0.1594  0.1360
 5411SOL    HW217675   6.804   5.359   2.772 -0.2274 -0.5094  1.4047
 5412SOL     OW17676   0.210   6.469   8.105  0.1273  0.8243  0.2692
 5412SOL    HW117677   0.132   6.457   8.050 -0.3416 -1.0798  1.2541
 5412SOL    HW217678   0.204   6.559   8.135 -0.6664  1.2946 -1.1926
 5413SOL     OW17679   5.601   1.866  11.490  0.9002  0.8913 -0.0742
 5413SOL    HW117680   5.685   1.858  11.534  1.9767  0.6412 -2.0545
 5413SOL    HW217681   5.618   1.924  11.415 -0.5556  0.4533 -0.7888
 5414SOL     OW17682   0.781   0.637  11.079  0.1703  0.0494 -0.0484
 5414SOL    HW117683   0.687   0.620  11.087  0.0024 -0.1018 -1.9971
 5414SOL    HW217684   0.820   0.589  11.153 -1.3371  1.0203  1.4596
 5415SOL     OW17685   7.871   0.933   2.932 -0.3944 -0.4558 -0.2349
 5415SOL    HW117686   7.792   0.961   2.885  0.4740  1.0079 -0.8940
 5415SOL    HW217687   7.879   0.995   3.005  0.2373 -0.4783 -0.2779
 5416SOL     OW17688   5.182   0.615   0.780 -0.2240 -0.1039 -0.0501
 5416SOL    HW117689   5.153   0.654   0.863  0.7636 -0.8852  0.6808
 5416SOL    HW217690   5.105   0.567   0.748 -0.6371  0.2637  0.3739
 5417SOL     OW17691   5.645   4.853   3.151  0.1528 -0.2452 -0.9038
 5417SOL    HW117692   5.710   4.809   3.205 -0.6737 -1.8638 -1.1941
 5417SOL    HW217693   5.602   4.915   3.211  0.8641 -0.2928 -0.3288
 5418SOL     OW17694   5.551   4.743   2.460  0.2737  0.2190  0.4542
 5418SOL    HW117695   5.611   4.697   2.401 -0.5660 -0.1535 -0.1487
 5418SOL    HW217696   5.468   4.744   2.412  0.2309  2.3070  0.4830
 5419SOL     OW17697   3.943   3.972  10.269 -0.5133 -0.3212 -0.0198
 5419SOL    HW117698   3.975   3.883  10.254 -2.6519 -1.3731  1.2086
 5419SOL    HW217699   3.870   3.982  10.208  1.6544  1.8800 -2.4913
 5420SOL     OW17700   2.225   3.146  10.721 -0.0324 -0.3744  0.5872
 5420SOL    HW117701   2.238   3.188  10.806  0.2321  0.0543  0.3421
 5420SOL    HW217702   2.191   3.216  10.665 -0.0073 -0.5990  0.2873
 5421SOL     OW17703   6.847   6.675   8.021 -0.1802 -0.4143  0.5725
 5421SOL    HW117704   6.937   6.706   8.014  0.6151 -2.5657  0.3747
 5421SOL    HW217705   6.815   6.674   7.930 -0.3966  0.2887  0.6363
 5422SOL     OW17706   1.525   2.831   8.777  0.5909 -0.3563 -0.3903
 5422SOL    HW117707   1.539   2.753   8.830 -1.0643 -0.6800 -0.3867
 5422SOL    HW217708   1.500   2.797   8.691 -0.9295  0.1241 -0.1738
 5423SOL     OW17709   3.455   1.209   0.185  0.3694 -0.2711 -0.2181
 5423SOL    HW117710   3.456   1.131   0.129  0.7417  0.4388 -1.2196
 5423SOL    HW217711   3.394   1.187   0.255  0.0100 -1.2387 -0.8149
 5424SOL     OW17712   5.307   6.453  11.080 -0.2533  0.6880  0.0276
 5424SOL    HW117713   5.373   6.386  11.099 -1.6278 -1.1632 -1.3307
 5424SOL    HW217714   5.323   6.476  10.988  1.1884  3.4982  0.8696
 5425SOL     OW17715   2.963   7.686   3.758  0.4331  0.2425  0.2099
 5425SOL    HW117716   3.002   7.720   3.839  0.5896 -0.9982  0.6716
 5425SOL    HW217717   2.925   7.763   3.716  2.8759  1.4383  0.0172
 5426SOL     OW17718   4.921   6.764   5.468 -0.2599  0.1081  0.0312
 5426SOL    HW117719   4.946   6.856   5.457 -0.3801  0.0744 -0.5545
 5426SOL    HW217720   4.887   6.759   5.557 -1.0163  0.8137 -0.2018
 5427SOL     OW17721   7.486   1.500   5.596  0.4656 -0.1721 -0.4893
 5427SOL    HW117722   7.409   1.505   5.652  0.9060 -0.4584  0.1658
 5427SOL    HW217723   7.452   1.483   5.508 -0.1569 -1.5250 -0.0105
 5428SOL     OW17724   6.151   2.848   3.810 -0.7717 -0.3570 -0.2150
 5428SOL    HW117725   6.077   2.829   3.868 -0.7739  3.3446  1.2905
 5428SOL    HW217726   6.112   2.893   3.735 -0.3318 -1.4645 -1.1376
 5429SOL     OW17727   0.116   4.063   2.477  0.3313  0.6806 -0.1714
 5429SOL    HW117728   0.034   4.112   2.483 -0.6187 -0.9639  1.2379
 5429SOL    HW217729   0.183   4.124   2.509 -0.7761  1.1643  1.3193
 5430SOL     OW17730   1.155   5.953  10.541 -0.2469  0.2836 -0.4339
 5430SOL    HW117731   1.093   5.953  10.614 -0.2931  0.7049 -0.4694
 5430SOL    HW217732   1.239   5.973  10.581 -0.3369  0.8937 -0.5467
 5431SOL     OW17733   0.162   4.171   8.448  0.1523  0.0137 -0.6651
 5431SOL    HW117734   0.246   4.215   8.459 -0.0208  0.2456 -0.2403
 5431SOL    HW217735   0.176   4.110   8.375  0.8481 -0.3461 -0.2445
 5432SOL     OW17736   6.300   3.918   9.141 -0.6345  0.1217  0.2359
 5432SOL    HW117737   6.239   3.987   9.115 -0.2958  0.2367 -0.2811
 5432SOL    HW217738   6.378   3.965   9.171 -0.2792 -0.0274 -0.4229
 5433SOL     OW17739   4.730   3.289  10.817 -0.3622  0.0738  0.6172
 5433SOL    HW117740   4.641   3.258  10.800 -0.4969  0.4293  0.6572
 5433SOL    HW217741   4.775   3.281  10.733 -1.1254  2.1733 -0.0794
 5434SOL     OW17742   7.288   0.276   4.225 -0.0592 -0.0453  0.7848
 5434SOL    HW117743   7.277   0.248   4.134 -0.1891  1.4573  0.3053
 5434SOL    HW217744   7.199   0.291   4.256  0.0482  1.5471  0.4260
 5435SOL     OW17745   7.110   3.131  10.616 -0.1282  0.4983 -0.5139
 5435SOL    HW117746   7.110   3.138  10.712  1.5663  1.3055 -0.5268
 5435SOL    HW217747   7.045   3.195  10.587 -1.6177 -0.6774  0.1021
 5436SOL     OW17748   4.668   4.232   9.091  0.2243  0.2920  0.7555
 5436SOL    HW117749   4.600   4.212   9.028  0.2567  0.7650  0.5672
 5436SOL    HW217750   4.737   4.274   9.040  0.7911 -0.4477  0.8901
 5437SOL     OW17751   0.061   0.977   7.298 -0.2734 -0.2845  0.2594
 5437SOL    HW117752   0.109   0.961   7.217  0.3441 -0.4009  0.6437
 5437SOL    HW217753   0.014   1.059   7.282  0.8038  0.3338  0.2154
 5438SOL     OW17754   6.538   7.133   4.360 -0.1905 -0.6352  0.4272
 5438SOL    HW117755   6.468   7.148   4.423  0.5061  1.7262  0.7276
 5438SOL    HW217756   6.495   7.130   4.275 -0.7771 -0.4771  0.7189
 5439SOL     OW17757   1.817   1.379   9.261  0.6850 -0.0266  0.0807
 5439SOL    HW117758   1.891   1.371   9.201  1.2499  0.9718  0.6131
 5439SOL    HW217759   1.790   1.471   9.254  1.4162  0.4020  2.0432
 5440SOL     OW17760   6.390   2.649   6.921 -0.3198 -0.0224 -0.2385
 5440SOL    HW117761   6.441   2.696   6.987  0.9394  0.6493 -1.6251
 5440SOL    HW217762   6.355   2.718   6.865 -2.1265 -0.5274  0.2163
 5441SOL     OW17763   1.379   1.848   7.730  0.0836 -0.2147  0.2799
 5441SOL    HW117764   1.351   1.833   7.820 -0.3613  1.5010  0.4494
 5441SOL    HW217765   1.473   1.829   7.730 -0.0797 -1.0694  0.8859
 5442SOL     OW17766   3.916   5.453   3.796 -0.6494  0.4294 -0.0084
 5442SOL    HW117767   3.881   5.378   3.749  1.8854  1.3527 -3.8742
 5442SOL    HW217768   3.845   5.518   3.794 -2.2511 -1.1274  1.8880
 5443SOL     OW17769   0.733   2.889   5.177 -0.3069  0.1611  0.0145
 5443SOL    HW117770   0.798   2.821   5.192 -1.3260 -0.7865  0.2625
 5443SOL    HW217771   0.661   2.868   5.237 -0.2614  2.0006  0.7848
 5444SOL     OW17772   6.808   6.161   9.092 -0.4059  0.2291  0.1271
 5444SOL    HW117773   6.803   6.170   9.187 -1.6605 -0.1878  0.1203
 5444SOL    HW217774   6.806   6.252   9.060 -1.1225  0.3389  0.4638
 5445SOL     OW17775   4.416   6.987   7.974  0.0813 -0.4058 -0.1203
 5445SOL    HW117776   4.489   6.972   8.035 -0.5186 -0.9364  0.4763
 5445SOL    HW217777   4.458   6.993   7.889  1.0348  1.2079  0.4234
 5446SOL     OW17778   7.094   7.150   3.325 -0.2076  0.8040  0.1760
 5446SOL    HW117779   7.141   7.168   3.406  0.2529  2.0074 -0.3339
 5446SOL    HW217780   7.078   7.056   3.327  2.7802  0.1883  0.1026
 5447SOL     OW17781   3.927   2.463   8.384  0.0397  0.0147 -0.6706
 5447SOL    HW117782   3.885   2.540   8.346  0.8260  0.2828 -1.0255
 5447SOL    HW217783   4.007   2.452   8.333  1.0207  0.2490  0.7580
 5448SOL     OW17784   7.233   7.305  12.430 -0.2774 -0.3724 -0.3339
 5448SOL    HW117785   7.285   7.290  12.351 -0.4934 -1.1691 -0.3365
 5448SOL    HW217786   7.296   7.337  12.494  0.1465 -0.8946 -0.4757
 5449SOL     OW17787   3.742   0.230   8.230 -0.0653 -0.2269  0.2213
 5449SOL    HW117788   3.830   0.197   8.252 -0.1561  0.3155  1.4662
 5449SOL    HW217789   3.756   0.323   8.213 -0.3641 -0.1853  0.2139
 5450SOL     OW17790   4.009   6.325   4.448 -0.1151  0.1106  0.2918
 5450SOL    HW117791   3.975   6.302   4.361 -1.1524  0.5662  0.5600
 5450SOL    HW217792   4.020   6.241   4.492 -1.3032 -0.0345  0.3358
 5451SOL     OW17793   2.230   6.219  11.061  0.0233  0.3021 -0.2552
 5451SOL    HW117794   2.232   6.234  11.155  1.2116  0.2052 -0.2543
 5451SOL    HW217795   2.212   6.125  11.052 -2.2201  0.6567 -0.1910
 5452SOL     OW17796   7.790   6.471   7.104 -0.2931 -0.2637  0.0077
 5452SOL    HW117797   7.867   6.464   7.049  0.1532  0.8722  0.4713
 5452SOL    HW217798   7.731   6.530   7.057 -0.6230 -0.6193 -0.0389
 5453SOL     OW17799   2.390   7.723   7.290 -0.5705 -0.0821 -0.2572
 5453SOL    HW117800   2.320   7.746   7.229 -1.3913  0.7943  0.9635
 5453SOL    HW217801   2.453   7.675   7.237 -1.2583  0.6196 -1.7782
 5454SOL     OW17802   4.306   3.824   0.075 -0.3658 -0.0349 -0.5067
 5454SOL    HW117803   4.336   3.914   0.059 -0.0930 -0.1407 -0.5916
 5454SOL    HW217804   4.211   3.828   0.065 -0.7246  0.8690  2.2809
 5455SOL     OW17805   3.002   4.209   0.421 -0.5958  0.0623  0.0079
 5455SOL    HW117806   3.019   4.288   0.370  0.4543  1.2052  2.0158
 5455SOL    HW217807   2.917   4.225   0.462 -0.4504  0.0873  0.3002
 5456SOL     OW17808   4.016   3.694   0.136 -0.0042 -0.0573 -0.0729
 5456SOL    HW117809   3.922   3.677   0.149 -0.1425  0.6752 -0.0440
 5456SOL    HW217810   4.042   3.634   0.066 -0.7093  0.3656 -0.7204
 5457SOL     OW17811   0.668   0.437   8.533 -0.4850  0.2887 -0.4755
 5457SOL    HW117812   0.697   0.520   8.571 -1.2764  0.5880 -0.4893
 5457SOL    HW217813   0.580   0.456   8.499 -1.3840 -0.9571  0.9828
 5458SOL     OW17814   7.052   4.175   6.380  0.6236 -0.1467  0.4179
 5458SOL    HW117815   7.119   4.107   6.369 -0.3401 -0.8259 -1.8364
 5458SOL    HW217816   7.101   4.252   6.407  2.0364 -1.1614  0.8909
 5459SOL     OW17817   2.778   3.388  11.306 -0.0512  0.0616  0.3480
 5459SOL    HW117818   2.740   3.320  11.251 -1.5739  1.0059  0.1631
 5459SOL    HW217819   2.810   3.342  11.384 -0.2636 -0.9547 -0.1595
 5460SOL     OW17820   2.646   7.760  10.871 -0.2721  0.2977  0.0337
 5460SOL    HW117821   2.738   7.752  10.846 -0.3925  1.1442 -0.7095
 5460SOL    HW217822   2.614   7.670  10.874  0.2139  0.0710 -1.1125
 5461SOL     OW17823   3.954   5.567   9.245 -0.0136  0.4912 -0.5405
 5461SOL    HW117824   4.024   5.630   9.230  2.4141 -2.3406 -2.0445
 5461SOL    HW217825   3.955   5.553   9.340  2.1437 -0.1137 -0.5927
 5462SOL     OW17826   1.724   2.440   7.806  0.6506 -0.3573 -0.2614
 5462SOL    HW117827   1.675   2.358   7.809  0.4346 -0.2422 -0.5512
 5462SOL    HW217828   1.658   2.508   7.795  0.8724 -0.2079 -0.7513
 5463SOL     OW17829   6.873   1.616   2.827  0.4125  0.1662 -0.1743
 5463SOL    HW117830   6.873   1.649   2.737  3.1193  1.2841  0.1388
 5463SOL    HW217831   6.810   1.672   2.873  0.7253  1.1462 -0.8931
 5464SOL     OW17832   6.368   5.345   1.544 -0.1294 -0.2158 -0.3441
 5464SOL    HW117833   6.324   5.414   1.494  3.5512  1.1605 -2.0469
 5464SOL    HW217834   6.338   5.263   1.504 -0.0865  0.7112 -2.3720
 5465SOL     OW17835   6.949   5.228   0.877 -0.8937 -0.4688 -0.1267
 5465SOL    HW117836   6.892   5.300   0.903  0.3449  0.1535  0.9605
 5465SOL    HW217837   6.895   5.150   0.886 -1.7496  0.1637  0.3108
 5466SOL     OW17838   1.206   1.696  11.574 -0.2684  0.3097  0.1097
 5466SOL    HW117839   1.156   1.711  11.654 -0.2191  1.4736 -0.0582
 5466SOL    HW217840   1.197   1.602  11.557  1.1275 -0.2980  2.3924
 5467SOL     OW17841   6.814   6.786   5.427 -0.0686 -0.1222 -0.5550
 5467SOL    HW117842   6.899   6.827   5.442 -0.6356  0.7178  0.5642
 5467SOL    HW217843   6.791   6.811   5.338  0.6464  0.0258 -0.7083
 5468SOL     OW17844   4.358   2.690   9.991 -0.2706 -0.5211  0.2412
 5468SOL    HW117845   4.354   2.699   9.896 -1.8585  1.1533  0.3961
 5468SOL    HW217846   4.451   2.680  10.011 -0.0598 -3.1646 -1.6081
 5469SOL     OW17847   1.547   7.120  11.065 -0.0831  0.0042 -0.0439
 5469SOL    HW117848   1.458   7.099  11.039 -0.1398  1.0850 -0.8221
 5469SOL    HW217849   1.569   7.055  11.132 -0.4127 -2.0933 -1.8685
 5470SOL     OW17850   7.620   2.719   5.433  0.0197 -0.1866 -0.2270
 5470SOL    HW117851   7.543   2.756   5.477 -0.5092 -0.6612 -0.7358
 5470SOL    HW217852   7.693   2.740   5.492 -0.5930 -0.3206  0.6087
 5471SOL     OW17853   7.228   4.772  10.361 -0.1597 -0.4528  0.2685
 5471SOL    HW117854   7.225   4.791  10.267  0.0050 -0.9474  0.1559
 5471SOL    HW217855   7.264   4.851  10.401  1.3235 -0.8207 -0.2671
 5472SOL     OW17856   7.089   4.042  12.112  0.5288 -0.2250 -0.1855
 5472SOL    HW117857   7.181   4.018  12.114  0.8150  0.5604 -2.0356
 5472SOL    HW217858   7.087   4.130  12.075 -1.0099 -0.4869 -0.8118
 5473SOL     OW17859   6.589   3.196   3.705  0.1510 -0.4456 -0.0641
 5473SOL    HW117860   6.666   3.197   3.648 -0.2845  0.8049 -0.6684
 5473SOL    HW217861   6.606   3.265   3.770 -0.2685 -0.4435  0.0479
 5474SOL     OW17862   6.702   0.635   1.118 -0.1860 -0.1403  0.3648
 5474SOL    HW117863   6.630   0.687   1.081  1.0294  1.3174 -0.0553
 5474SOL    HW217864   6.687   0.638   1.213  0.2122  1.6035  0.4100
 5475SOL     OW17865   3.040   5.579   5.160  0.2916  0.3040  0.0239
 5475SOL    HW117866   3.076   5.667   5.163  1.3383 -0.0489 -1.1398
 5475SOL    HW217867   3.042   5.555   5.067  0.0225 -0.9379  0.3144
 5476SOL     OW17868   5.203   4.498   3.482 -0.8468  0.1693  0.1111
 5476SOL    HW117869   5.289   4.518   3.444 -0.5822 -0.6400  0.2672
 5476SOL    HW217870   5.143   4.559   3.439 -0.1259  1.0669  0.3380
 5477SOL     OW17871   2.836   4.968   7.126 -0.6070  0.3202 -0.3029
 5477SOL    HW117872   2.855   4.917   7.047  0.6298  0.3780 -0.0660
 5477SOL    HW217873   2.845   4.906   7.198  2.3485  1.0739  0.1234
 5478SOL     OW17874   6.208   6.958   3.084  0.0397  0.3575 -0.3315
 5478SOL    HW117875   6.214   7.049   3.054  0.5272  0.5823  0.4243
 5478SOL    HW217876   6.223   6.962   3.178  1.5918 -0.6739 -0.4960
 5479SOL     OW17877   4.526   2.083  10.512 -0.1968  0.0756 -0.0759
 5479SOL    HW117878   4.485   2.127  10.438  0.6724  0.0184 -0.5980
 5479SOL    HW217879   4.465   2.014  10.535 -0.6429  0.3189 -0.5057
 5480SOL     OW17880   4.250   0.406   4.390 -0.2838 -0.2213  0.2257
 5480SOL    HW117881   4.208   0.379   4.308 -0.8526 -0.7598  0.6805
 5480SOL    HW217882   4.334   0.442   4.363 -0.2429 -0.8753 -0.5550
 5481SOL     OW17883   1.508   1.202   2.584 -0.2233 -0.1156  0.0904
 5481SOL    HW117884   1.424   1.241   2.558 -0.3681 -0.7435 -0.4358
 5481SOL    HW217885   1.489   1.160   2.668 -0.5883 -0.7071 -0.2772
 5482SOL     OW17886   5.043   3.983  11.963  0.4963 -0.2964  0.6533
 5482SOL    HW117887   5.044   4.070  11.924  1.0178  0.6794  2.7142
 5482SOL    HW217888   4.994   3.929  11.900  1.3003  1.1334 -1.2945
 5483SOL     OW17889   0.678   0.483   0.580 -0.1892 -0.3392  0.6419
 5483SOL    HW117890   0.735   0.422   0.627  1.3161  0.4336 -0.1161
 5483SOL    HW217891   0.590   0.460   0.609  0.3324 -2.6951  0.5656
 5484SOL     OW17892   0.511   6.125  12.355  0.5654 -0.2153  0.1868
 5484SOL    HW117893   0.576   6.190  12.382  0.0398 -0.7901  3.1941
 5484SOL    HW217894   0.564   6.053  12.318  1.1710  1.5352 -2.7232
 5485SOL     OW17895   7.339   5.609   8.721  0.0902  0.0353 -0.1530
 5485SOL    HW117896   7.343   5.705   8.715 -0.2988 -0.0457 -3.2360
 5485SOL    HW217897   7.430   5.581   8.714  0.4315  0.1495  2.7407
 5486SOL     OW17898   7.570   1.557   1.562  0.0252  0.3521  0.0818
 5486SOL    HW117899   7.491   1.570   1.614  0.1433 -0.9426  0.6100
 5486SOL    HW217900   7.557   1.473   1.518  1.7523 -0.6781  1.4197
 5487SOL     OW17901   3.898   5.668  10.333  0.0607  0.3402 -0.2332
 5487SOL    HW117902   3.921   5.599  10.271 -0.1471 -0.1948  0.2798
 5487SOL    HW217903   3.844   5.625  10.399 -0.7130  1.1481 -0.3093
 5488SOL     OW17904   3.758   4.414  10.147 -0.1428 -0.4081 -0.4520
 5488SOL    HW117905   3.850   4.441  10.142 -0.1185  0.0397  1.4165
 5488SOL    HW217906   3.729   4.409  10.056  0.9015  2.2799 -1.0336
 5489SOL     OW17907   1.876   4.474   5.002 -0.0862 -0.1266  0.0771
 5489SOL    HW117908   1.833   4.532   5.064 -0.4479  1.2050 -1.3707
 5489SOL    HW217909   1.809   4.410   4.977  0.0086 -0.5541  0.8902
 5490SOL     OW17910   5.792   5.094   5.839 -0.1258 -0.4452  0.4066
 5490SOL    HW117911   5.875   5.121   5.880  0.8100 -2.4286 -0.1006
 5490SOL    HW217912   5.774   5.007   5.875 -3.0193  0.6209  1.9431
 5491SOL     OW17913   3.644   2.044   0.254  0.4936 -0.1251  0.4276
 5491SOL    HW117914   3.575   2.108   0.266 -1.1462 -1.9232  1.1592
 5491SOL    HW217915   3.677   2.061   0.166 -3.5048 -1.4788 -1.5792
 5492SOL     OW17916   7.540   6.511   1.870 -0.1039  0.0051 -0.5677
 5492SOL    HW117917   7.547   6.537   1.962  2.6543 -0.7627 -0.4739
 5492SOL    HW217918   7.545   6.593   1.821 -0.3080  0.3184 -0.0648
 5493SOL     OW17919   1.988   1.886  10.129  0.3432 -0.1025  0.0722
 5493SOL    HW117920   2.073   1.853  10.160  0.6961  1.5283  0.9322
 5493SOL    HW217921   1.925   1.846  10.189  0.7208  0.3645  0.7980
 5494SOL     OW17922   5.176   7.076  10.331 -0.0496  0.0992 -0.3383
 5494SOL    HW117923   5.270   7.076  10.350  0.0475 -0.2093 -0.8090
 5494SOL    HW217924   5.143   6.996  10.372 -0.4051  0.9953  1.2126
 5495SOL     OW17925   3.062   4.971   9.765 -0.3328  0.4756  0.0792
 5495SOL    HW117926   3.056   4.941   9.674  1.6704  0.7453 -0.1725
 5495SOL    HW217927   2.990   5.034   9.774 -1.0358 -0.1334 -1.0757
 5496SOL     OW17928   4.970   7.855  10.733  0.0466 -0.9421 -0.0521
 5496SOL    HW117929   4.920   7.809  10.800 -0.7644 -0.5601 -0.3787
 5496SOL    HW217930   4.985   7.791  10.665 -2.5492 -0.3570 -1.2912
 5497SOL     OW17931   6.570   2.268   1.995 -0.1610 -0.0554  0.4699
 5497SOL    HW117932   6.482   2.301   2.015 -0.1942 -0.2546  0.6519
 5497SOL    HW217933   6.598   2.320   1.920  0.0571  0.8543  1.1605
 5498SOL     OW17934   5.151   1.593   1.361 -0.7670 -0.1647  0.1312
 5498SOL    HW117935   5.225   1.581   1.421 -1.0155 -1.7742  0.1728
 5498SOL    HW217936   5.191   1.612   1.277 -0.2501 -1.2899  0.0962
 5499SOL     OW17937   4.846   5.324   8.538 -0.0621  0.0943  0.3685
 5499SOL    HW117938   4.762   5.289   8.567 -1.4204  2.2434 -0.7463
 5499SOL    HW217939   4.886   5.360   8.617  0.3830 -1.8920  1.1118
 5500SOL     OW17940   5.871   7.624  11.554  0.1231  0.6478  0.0957
 5500SOL    HW117941   5.903   7.538  11.527 -0.8385  0.5514 -0.8123
 5500SOL    HW217942   5.950   7.677  11.565  0.7482 -0.3973  0.8969
 5501SOL     OW17943   3.788   1.711  10.887 -0.6897 -0.5271  0.0670
 5501SOL    HW117944   3.772   1.686  10.978  0.0569 -0.4113  0.2410
 5501SOL    HW217945   3.731   1.653  10.836 -1.4911 -0.2452  0.6245
 5502SOL     OW17946   6.304   5.383   2.887 -0.3980  0.8219 -0.0844
 5502SOL    HW117947   6.373   5.447   2.869  0.0443  0.0585 -1.2484
 5502SOL    HW217948   6.252   5.423   2.956  2.6124  0.4254  2.6428
 5503SOL     OW17949   6.829   0.820   2.519  0.2011  0.0499  0.0315
 5503SOL    HW117950   6.862   0.737   2.484  1.0777 -0.0483  1.0483
 5503SOL    HW217951   6.866   0.825   2.607 -0.5168  1.1357  0.2850
 5504SOL     OW17952   3.918   0.862   9.679  0.2104  0.5394 -0.2280
 5504SOL    HW117953   3.990   0.900   9.629  0.3918  0.0653 -0.3376
 5504SOL    HW217954   3.899   0.780   9.634  0.2568  0.1953  0.3699
 5505SOL     OW17955   2.066   4.281   9.126 -0.2439 -0.1341 -0.4523
 5505SOL    HW117956   2.003   4.354   9.120  1.5941  1.4335 -3.1794
 5505SOL    HW217957   2.016   4.204   9.098 -1.1436  0.9998 -2.1719
 5506SOL     OW17958   7.729   1.991  11.848  0.1984  0.4788 -0.3935
 5506SOL    HW117959   7.649   1.967  11.894  0.9558 -0.2629  0.5714
 5506SOL    HW217960   7.788   1.916  11.861  0.3665  0.1074 -2.7931
 5507SOL     OW17961   6.535   7.464   1.186 -0.7365  0.5461  0.3671
 5507SOL    HW117962   6.598   7.499   1.123 -0.7312  0.9886  0.6120
 5507SOL    HW217963   6.530   7.531   1.254 -0.8072  0.1113  0.7945
 5508SOL     OW17964   5.068   1.648   4.377  0.0145  0.1790  0.1989
 5508SOL    HW117965   5.161   1.670   4.375  0.1126 -0.2815 -0.7976
 5508SOL    HW217966   5.049   1.618   4.289 -0.9486 -0.2920  0.5587
 5509SOL     OW17967   6.828   0.296   6.039 -0.5715 -0.1844  0.0203
 5509SOL    HW117968   6.887   0.299   5.963 -2.6886  2.4150 -1.7472
 5509SOL    HW217969   6.860   0.364   6.097 -0.4517 -0.4077  0.2168
 5510SOL     OW17970   7.115   0.203   2.371 -0.0808 -0.1006 -0.3283
 5510SOL    HW117971   7.175   0.253   2.425 -2.0035  2.2465 -0.2011
 5510SOL    HW217972   7.090   0.129   2.426 -0.0116  0.8224  0.9959
 5511SOL     OW17973   6.043   5.841   4.937 -0.0059 -0.3816 -0.2533
 5511SOL    HW117974   5.990   5.855   4.859  0.7337  2.4278 -0.3447
 5511SOL    HW217975   6.069   5.929   4.965  3.5629 -1.5300  0.5026
 5512SOL     OW17976   6.883   2.562  11.023 -0.5985 -0.2452 -0.0624
 5512SOL    HW117977   6.976   2.551  11.000 -0.0434 -0.3372  2.0148
 5512SOL    HW217978   6.836   2.542  10.941  1.1913 -0.1244 -1.1869
 5513SOL     OW17979   3.451   7.571   2.941 -0.5037 -0.2432 -0.6046
 5513SOL    HW117980   3.394   7.577   3.018 -1.1410 -0.5920 -1.0404
 5513SOL    HW217981   3.537   7.547   2.977 -0.1429  1.9874  0.2469
 5514SOL     OW17982   4.437   6.408  10.470  0.2765 -0.0642  0.2889
 5514SOL    HW117983   4.426   6.315  10.452 -0.1841 -0.0975  0.7147
 5514SOL    HW217984   4.529   6.416  10.498  0.3810 -0.3500  0.0329
 5515SOL     OW17985   6.587   5.757   9.323  0.2920  0.4249  0.1013
 5515SOL    HW117986   6.575   5.723   9.234  0.6466  0.1916  0.1406
 5515SOL    HW217987   6.522   5.827   9.331  1.1417  1.3564 -0.8104
 5516SOL     OW17988   7.739   6.786   1.908 -0.4454  0.4635  0.3470
 5516SOL    HW117989   7.683   6.819   1.838  0.8281  2.0356 -0.0004
 5516SOL    HW217990   7.827   6.816   1.885  0.5681 -1.8767  0.9015
 5517SOL     OW17991   0.531   3.941   0.008 -0.0667  0.5900 -0.3026
 5517SOL    HW117992   0.460   3.994   0.042  0.5271  0.3848  1.3203
 5517SOL    HW217993   0.610   3.977   0.048  0.7465  0.6267 -1.8349
 5518SOL     OW17994   6.461   5.643   3.565  0.4732  0.0981 -0.2237
 5518SOL    HW117995   6.479   5.558   3.524  1.4359 -0.8624  1.9776
 5518SOL    HW217996   6.519   5.704   3.521  0.8039 -0.6934 -0.9132
 5519SOL     OW17997   6.863   5.120   1.959 -0.1306 -0.0198  0.2670
 5519SOL    HW117998   6.794   5.122   1.893  0.1064  0.0298  0.0151
 5519SOL    HW217999   6.876   5.027   1.979 -0.9619  0.0267  1.0588
 5520SOL     OW18000   6.463   6.624   5.897  0.2038  0.4694 -0.0496
 5520SOL    HW118001   6.441   6.678   5.821 -1.0724  1.3121  0.8867
 5520SOL    HW218002   6.393   6.640   5.960  1.2731 -0.1266  1.3661
 5521SOL     OW18003   0.887   0.512  11.929  0.2792 -0.1271 -0.7561
 5521SOL    HW118004   0.894   0.421  11.958 -2.1642 -0.3585 -0.6850
 5521SOL    HW218005   0.863   0.561  12.007 -1.4746  0.0325 -1.3450
 5522SOL     OW18006   4.542   1.503  11.459  0.2577  0.1839 -0.8003
 5522SOL    HW118007   4.599   1.573  11.492 -0.3783  1.4882 -2.3518
 5522SOL    HW218008   4.454   1.528  11.486  0.1889 -0.8749  0.0084
 5523SOL     OW18009   0.928   1.800   4.897  0.4032  0.3333  0.0362
 5523SOL    HW118010   1.000   1.859   4.920 -0.5887  1.4883  0.2611
 5523SOL    HW218011   0.898   1.831   4.812 -0.5610  0.5968  0.4638
 5524SOL     OW18012   2.182   1.242  10.364  0.0433  0.1204  0.9211
 5524SOL    HW118013   2.194   1.318  10.307  0.7544 -0.0711  0.7987
 5524SOL    HW218014   2.092   1.250  10.396 -0.3237  0.3112 -0.1062
 5525SOL     OW18015   7.339   6.422   1.231 -1.0652  0.4289  0.4886
 5525SOL    HW118016   7.363   6.373   1.152 -1.7737  0.1466  0.4423
 5525SOL    HW218017   7.326   6.512   1.201 -1.3279  0.3228  0.2803
 5526SOL     OW18018   4.216   2.962   8.055  0.5369  0.5502 -0.0002
 5526SOL    HW118019   4.138   2.965   8.110 -0.5301  1.2252 -1.4720
 5526SOL    HW218020   4.283   3.006   8.106 -0.2346  0.5760  1.0257
 5527SOL     OW18021   1.233   6.030   9.272  0.2095 -0.4861 -0.6792
 5527SOL    HW118022   1.222   5.978   9.192  0.6702  1.2275 -1.9104
 5527SOL    HW218023   1.301   5.984   9.322 -1.4838 -2.6907 -0.2525
 5528SOL     OW18024   0.235   2.957   2.643  0.1090  0.1012 -0.5674
 5528SOL    HW118025   0.278   2.878   2.676 -0.3239  0.2265  0.3416
 5528SOL    HW218026   0.215   2.937   2.551  3.3095  0.5673 -1.4860
 5529SOL     OW18027   2.398   5.019   4.794  0.6357 -0.5013 -0.2093
 5529SOL    HW118028   2.406   5.081   4.721 -1.0228 -1.3482 -1.1746
 5529SOL    HW218029   2.388   5.074   4.871 -0.7663  0.4742 -1.0393
 5530SOL     OW18030   6.166   0.197   3.550  0.4809 -0.3305  0.3063
 5530SOL    HW118031   6.112   0.221   3.625  0.5995  1.4419 -0.1235
 5530SOL    HW218032   6.245   0.249   3.559  0.2176  0.4335 -1.3622
 5531SOL     OW18033   2.291   6.973   9.130 -0.1607 -0.4594 -0.1134
 5531SOL    HW118034   2.380   6.940   9.118 -0.3032 -0.6539 -0.6777
 5531SOL    HW218035   2.296   7.029   9.208  0.7166  0.4577 -0.7922
 5532SOL     OW18036   1.370   2.107   7.235  0.0923  0.6445 -0.3264
 5532SOL    HW118037   1.424   2.126   7.158 -1.4925 -0.7144 -1.8638
 5532SOL    HW218038   1.355   2.013   7.231 -0.8700  0.7133  1.1002
 5533SOL     OW18039   6.668   4.694   6.708 -0.1525  0.1491 -0.2518
 5533SOL    HW118040   6.725   4.619   6.727 -0.0699 -0.2666 -1.9456
 5533SOL    HW218041   6.587   4.676   6.756  0.7416  0.2212  1.3318
 5534SOL     OW18042   6.382   3.305   8.599  0.7118  0.3910 -0.3174
 5534SOL    HW118043   6.343   3.373   8.544  1.7498  1.2190 -0.0763
 5534SOL    HW218044   6.338   3.224   8.573  1.2688  0.7182 -2.4930
 5535SOL     OW18045   0.279   7.884   5.245 -0.2144 -0.2342  0.0286
 5535SOL    HW118046   0.247   7.825   5.314 -0.1716  0.3556  0.5612
 5535SOL    HW218047   0.234   7.854   5.166 -1.7710  0.2973  0.6695
 5536SOL     OW18048   0.567   3.881   7.722  0.4964 -0.1854  0.8933
 5536SOL    HW118049   0.642   3.895   7.664 -0.3088 -0.6987 -0.3011
 5536SOL    HW218050   0.595   3.918   7.806  2.0484 -0.2943  0.4556
 5537SOL     OW18051   2.805   5.315  10.217 -0.6843  0.4145  0.6383
 5537SOL    HW118052   2.841   5.404  10.212 -1.9739  0.9622  0.5430
 5537SOL    HW218053   2.825   5.285  10.305  0.9225  0.2666  0.2481
 5538SOL     OW18054   2.829   4.699   6.465 -0.0131  0.3895 -0.1221
 5538SOL    HW118055   2.751   4.649   6.490  0.0161  0.7410  0.7069
 5538SOL    HW218056   2.880   4.638   6.411 -1.0467  0.2972 -1.0398
 5539SOL     OW18057   4.403   6.061   9.526 -0.4194  0.6689 -0.5800
 5539SOL    HW118058   4.407   5.998   9.454  0.2911 -0.5329  0.4806
 5539SOL    HW218059   4.487   6.107   9.522 -0.7402  1.2360 -1.0465
 5540SOL     OW18060   2.299   6.910   8.333 -0.3697  0.0815 -0.4136
 5540SOL    HW118061   2.320   6.871   8.418  1.0166  1.8482  0.1129
 5540SOL    HW218062   2.230   6.854   8.298 -0.8322 -0.8200  1.7662
 5541SOL     OW18063   4.352   2.855   6.608  0.1783 -0.5251  0.1551
 5541SOL    HW118064   4.357   2.935   6.555 -1.3992  0.3702  1.2472
 5541SOL    HW218065   4.411   2.870   6.681  1.5395 -1.3099 -0.7488
 5542SOL     OW18066   7.719   6.056   2.521 -0.2458 -0.2481  1.2519
 5542SOL    HW118067   7.640   6.108   2.512  0.8074  1.1828 -0.1126
 5542SOL    HW218068   7.693   5.982   2.576 -2.2556  0.7085  1.6583
 5543SOL     OW18069   2.728   3.967   6.758  0.2601  0.5811  0.0396
 5543SOL    HW118070   2.730   4.039   6.695 -1.6872 -1.2327 -2.3253
 5543SOL    HW218071   2.805   3.914   6.736  0.3241  0.6559  0.0850
 5544SOL     OW18072   2.151   1.357   7.235  0.3174  0.0853  0.3089
 5544SOL    HW118073   2.115   1.350   7.146  0.2240 -1.8033  0.4724
 5544SOL    HW218074   2.155   1.267   7.267  0.5259  0.7227  2.1684
 5545SOL     OW18075   7.713   1.110  11.780 -0.1075 -0.2462 -0.2591
 5545SOL    HW118076   7.793   1.142  11.821  0.2940 -2.1281  0.5572
 5545SOL    HW218077   7.743   1.059  11.704 -0.4897 -1.1148  0.1533
 5546SOL     OW18078   2.271   1.843   1.555  0.2883  0.1833  0.0959
 5546SOL    HW118079   2.230   1.927   1.535 -1.4527 -0.1109  2.0548
 5546SOL    HW218080   2.284   1.802   1.470  0.2783  2.0239 -0.8375
 5547SOL     OW18081   2.477   0.787   1.556  0.2802  0.1863 -0.4215
 5547SOL    HW118082   2.434   0.708   1.523 -0.7405  0.8655 -0.7369
 5547SOL    HW218083   2.445   0.797   1.645  1.6441 -0.6227  0.2031
 5548SOL     OW18084   5.693   1.234  10.686  0.4574 -0.6929  0.6371
 5548SOL    HW118085   5.702   1.248  10.592 -2.0326  1.4881  0.5961
 5548SOL    HW218086   5.705   1.140  10.697 -2.7477 -1.6869 -2.4699
 5549SOL     OW18087   7.125   3.970   3.109  0.1950 -0.0575 -0.5431
 5549SOL    HW118088   7.185   4.042   3.090 -0.0645 -0.4910 -3.4014
 5549SOL    HW218089   7.108   3.930   3.024 -1.5305 -2.0415  0.6493
 5550SOL     OW18090   2.206   6.057   5.945 -0.2550  0.0964  0.2484
 5550SOL    HW118091   2.295   6.063   5.981  0.1229 -1.2575 -0.3819
 5550SOL    HW218092   2.218   6.017   5.859 -1.5222 -0.5624  0.3573
 5551SOL     OW18093   4.930   7.168   6.416  0.4214  0.4235  0.5858
 5551SOL    HW118094   5.009   7.181   6.362  1.1833 -2.0679  0.9942
 5551SOL    HW218095   4.866   7.130   6.356 -0.7208  2.8797  0.1365
 5552SOL     OW18096   7.781   7.841   2.645 -0.1369 -0.1406  0.0035
 5552SOL    HW118097   7.708   7.881   2.599  0.6525  2.0927  0.5691
 5552SOL    HW218098   7.853   7.904   2.638  0.8805 -0.9755  1.8404
 5553SOL     OW18099   3.582   1.093   5.885  0.0039 -0.2377  0.0313
 5553SOL    HW118100   3.531   1.163   5.927 -0.7138 -0.4208 -0.5113
 5553SOL    HW218101   3.645   1.066   5.952 -1.0543 -0.4632  0.9700
 5554SOL     OW18102   2.386   1.737   9.767  0.3175 -0.0839 -0.0729
 5554SOL    HW118103   2.429   1.672   9.823 -0.2317  0.0184  0.4811
 5554SOL    HW218104   2.360   1.688   9.690 -0.0379 -0.5170  0.3159
 5555SOL     OW18105   6.180   3.579   2.698  0.3886  0.1919 -0.0196
 5555SOL    HW118106   6.188   3.551   2.789 -2.4463 -1.5586 -0.1823
 5555SOL    HW218107   6.230   3.515   2.648  1.3912  0.7687  0.2107
 5556SOL     OW18108   1.621   2.885  10.151  0.2854  0.8299  0.3109
 5556SOL    HW118109   1.664   2.938  10.084 -0.3945  1.4347  0.3341
 5556SOL    HW218110   1.534   2.924  10.160  1.2327  2.5607  3.5169
 5557SOL     OW18111   2.923   2.979   4.884 -0.6866 -0.3012  0.1764
 5557SOL    HW118112   2.903   2.909   4.822 -1.5730  0.0443  0.0631
 5557SOL    HW218113   3.019   2.977   4.891 -0.7277 -2.0762  0.8346
 5558SOL     OW18114   2.839   6.753   0.665  0.7368  0.3841  0.4092
 5558SOL    HW118115   2.769   6.703   0.707  0.4076  0.4451 -0.0466
 5558SOL    HW218116   2.915   6.742   0.722  0.4579  0.0015  0.7140
 5559SOL     OW18117   6.996   1.989   7.276 -0.2462  0.0838 -0.1480
 5559SOL    HW118118   7.040   1.912   7.312 -1.3829 -0.3359  0.3811
 5559SOL    HW218119   6.935   2.016   7.344 -2.0770 -0.4124 -1.5158
 5560SOL     OW18120   1.744   3.788   0.347  0.0551  0.1477 -0.2105
 5560SOL    HW118121   1.763   3.859   0.409  0.3862  0.2315 -0.4090
 5560SOL    HW218122   1.815   3.792   0.283  1.3126 -1.7510  0.9671
 5561SOL     OW18123   2.405   0.083   6.455 -0.1809  0.3205 -0.0100
 5561SOL    HW118124   2.343   0.014   6.480  0.4676 -0.1588  0.2919
 5561SOL    HW218125   2.487   0.038   6.439 -0.0769  0.8618 -1.1376
 5562SOL     OW18126   2.998   4.838   4.013  0.0911  0.4019 -0.0204
 5562SOL    HW118127   3.048   4.856   4.092  4.7804  0.4932 -2.6387
 5562SOL    HW218128   3.022   4.749   3.988 -2.5391 -0.2375 -0.6283
 5563SOL     OW18129   1.196   0.767  12.001 -0.2231 -0.2182  0.2635
 5563SOL    HW118130   1.190   0.712  12.079 -1.6530 -0.9413 -0.3319
 5563SOL    HW218131   1.225   0.707  11.932  0.2201  0.2381  0.0481
 5564SOL     OW18132   6.419   4.584   5.514 -0.5698 -0.2330 -0.6825
 5564SOL    HW118133   6.325   4.604   5.512 -0.3447  1.4459  1.4885
 5564SOL    HW218134   6.461   4.663   5.479  0.0788 -0.0836  0.3802
 5565SOL     OW18135   2.315   0.759   1.107  0.3242  0.1399  0.1633
 5565SOL    HW118136   2.312   0.778   1.013 -1.6339  2.0698  0.5337
 5565SOL    HW218137   2.227   0.727   1.128  0.8665 -0.6882  1.2797
 5566SOL     OW18138   4.954   5.537   8.076 -0.3441  0.0912  0.3657
 5566SOL    HW118139   5.022   5.469   8.076  1.1952  1.5404 -0.0080
 5566SOL    HW218140   4.910   5.526   7.991 -0.3378 -0.6451  0.4524
 5567SOL     OW18141   6.236   1.845   2.339 -0.3574  0.0004  0.0505
 5567SOL    HW118142   6.246   1.819   2.248 -0.3377  0.2120 -0.0091
 5567SOL    HW218143   6.288   1.782   2.388  1.0369  0.8857 -0.2291
 5568SOL     OW18144   4.194   7.865  10.650  0.2324 -0.0434  0.2073
 5568SOL    HW118145   4.203   7.883  10.743 -1.5469 -2.8916  1.0876
 5568SOL    HW218146   4.130   7.929  10.619  1.0076  1.0702  0.8751
 5569SOL     OW18147   4.461   1.691   3.048 -0.5067 -1.0902  0.8585
 5569SOL    HW118148   4.486   1.623   2.986 -0.3876 -0.4172  0.1476
 5569SOL    HW218149   4.515   1.674   3.125  2.1099  0.2036 -0.5612
 5570SOL     OW18150   2.450   0.969  11.717 -0.7187 -0.1129 -0.3117
 5570SOL    HW118151   2.372   0.997  11.764 -1.4785 -1.1110 -0.9374
 5570SOL    HW218152   2.505   1.047  11.712 -1.9168  0.7492 -0.3283
 5571SOL     OW18153   0.272   5.017   0.578 -0.1176 -0.2545  0.3447
 5571SOL    HW118154   0.300   5.029   0.487 -0.6155  1.0648  0.3585
 5571SOL    HW218155   0.328   5.076   0.628 -0.2162 -0.5766  0.8384
 5572SOL     OW18156   3.040   2.646  11.764 -0.2270 -0.2570 -0.6454
 5572SOL    HW118157   3.125   2.688  11.778 -0.3764  0.8207 -2.6142
 5572SOL    HW218158   2.979   2.697  11.817  0.5679 -2.5275  2.8293
 5573SOL     OW18159   6.099   2.745   5.006 -0.2844 -0.2670  0.2056
 5573SOL    HW118160   6.111   2.837   5.029 -2.3013  0.3529 -0.9783
 5573SOL    HW218161   6.048   2.708   5.078 -1.7220  0.2560 -0.4901
 5574SOL     OW18162   1.844   2.568   4.099 -0.1996  0.1821  0.5068
 5574SOL    HW118163   1.870   2.532   4.184 -1.0404 -0.9196  0.3181
 5574SOL    HW218164   1.805   2.494   4.052 -0.9255  1.0774 -0.3557
 5575SOL     OW18165   3.701   3.786  11.565  0.3839 -0.6375  0.3349
 5575SOL    HW118166   3.778   3.808  11.617 -1.6182  0.4672  3.0979
 5575SOL    HW218167   3.644   3.740  11.626 -1.0179 -1.7540 -1.7176
 5576SOL     OW18168   2.157   6.728   2.923 -0.1741  0.8572 -0.3684
 5576SOL    HW118169   2.114   6.644   2.907 -0.5468  1.0223 -0.2514
 5576SOL    HW218170   2.117   6.787   2.859 -0.4165  1.1104  0.0148
 5577SOL     OW18171   0.800   0.785   2.603  0.3535  0.1062  0.5052
 5577SOL    HW118172   0.876   0.730   2.621  0.8926  1.3877  2.4506
 5577SOL    HW218173   0.814   0.818   2.515  2.0926  0.3301  0.8350
 5578SOL     OW18174   0.468   6.308  10.619 -0.1306 -0.0403 -0.0440
 5578SOL    HW118175   0.384   6.288  10.660 -0.3290 -0.8590 -0.8227
 5578SOL    HW218176   0.534   6.279  10.683 -0.4218  0.5297  0.5327
 5579SOL     OW18177   5.495   7.338  11.740  0.0964  0.4551 -0.3118
 5579SOL    HW118178   5.479   7.346  11.646 -0.9588  0.2944 -0.1613
 5579SOL    HW218179   5.510   7.427  11.770 -1.2523  0.7194 -0.3623
 5580SOL     OW18180   6.394   3.037   2.902  0.0557 -0.5470 -0.3388
 5580SOL    HW118181   6.427   2.950   2.925 -0.3311 -0.2328  1.5376
 5580SOL    HW218182   6.393   3.085   2.985 -0.0215  1.1592 -1.2934
 5581SOL     OW18183   1.002   6.746   0.694 -0.1609  0.7417  0.0760
 5581SOL    HW118184   1.089   6.738   0.732 -0.0405  0.9791 -0.1413
 5581SOL    HW218185   0.996   6.838   0.668 -0.2381  0.5864 -0.4766
 5582SOL     OW18186   1.799   6.047   4.585 -0.6413 -0.0951 -0.2253
 5582SOL    HW118187   1.761   5.965   4.616  0.5458 -0.2436  0.8858
 5582SOL    HW218188   1.800   6.104   4.662 -0.4710  0.6041 -0.7366
 5583SOL     OW18189   1.482   2.269   0.391  0.7340 -0.0302  0.2432
 5583SOL    HW118190   1.559   2.269   0.334  1.4135 -1.0901  1.1256
 5583SOL    HW218191   1.434   2.190   0.367  0.0020  0.5269 -0.1670
 5584SOL     OW18192   7.803   0.905   4.177  0.2472  0.1253  0.0056
 5584SOL    HW118193   7.851   0.958   4.113 -0.4253  1.8641  0.8778
 5584SOL    HW218194   7.857   0.906   4.255  0.1402 -0.3439  0.0918
 5585SOL     OW18195   6.162   5.164   2.236 -0.1118  0.1510 -0.2248
 5585SOL    HW118196   6.145   5.187   2.145  0.7321 -0.3857 -0.5224
 5585SOL    HW218197   6.188   5.072   2.234 -0.0637  0.1382  0.5587
 5586SOL     OW18198   3.766   3.325  10.653 -0.4484 -0.0173 -0.2648
 5586SOL    HW118199   3.752   3.272  10.732  0.4141  1.4957  0.9624
 5586SOL    HW218200   3.693   3.387  10.653 -0.1093  0.3845 -0.3071
 5587SOL     OW18201   6.029   5.661   5.491  0.2801 -0.2508  0.4195
 5587SOL    HW118202   6.034   5.621   5.578  0.9771  2.4711  1.7243
 5587SOL    HW218203   6.116   5.647   5.453 -0.2747 -2.1861 -0.2810
 5588SOL     OW18204   0.121   6.923   0.459  0.4908 -0.3408  0.3865
 5588SOL    HW118205   0.037   6.877   0.449 -0.4215  1.1623  0.7529
 5588SOL    HW218206   0.117   6.959   0.548  1.5993 -0.3923  0.4602
 5589SOL     OW18207   3.898   7.275   4.830  0.7002 -0.2423  0.7467
 5589SOL    HW118208   3.987   7.280   4.866  1.1181  0.4345 -0.3415
 5589SOL    HW218209   3.864   7.364   4.839 -0.3409 -0.7503  2.2531
 5590SOL     OW18210   3.955   1.174   1.768  0.8978  0.3964  0.1669
 5590SOL    HW118211   3.916   1.152   1.684  0.0182 -1.0714  0.9266
 5590SOL    HW218212   3.964   1.270   1.766 -1.9361  0.7361 -0.3969
 5591SOL     OW18213   3.929   0.324   3.224  0.2534 -0.0133  0.8382
 5591SOL    HW118214   3.946   0.399   3.167 -0.4101  0.3090  1.0554
 5591SOL    HW218215   3.967   0.348   3.308  2.6303 -1.1134  0.1952
 5592SOL     OW18216   6.131   6.896   2.824  0.2582  0.0345  0.3317
 5592SOL    HW118217   6.087   6.811   2.822 -1.7921  1.0328  0.6797
 5592SOL    HW218218   6.165   6.903   2.914  2.1524 -1.1932 -0.2388
 5593SOL     OW18219   2.267   7.423  11.830  0.3222  0.7888 -0.3539
 5593SOL    HW118220   2.335   7.397  11.768 -0.4690 -0.0309 -0.9129
 5593SOL    HW218221   2.309   7.418  11.915  0.6546 -0.8985 -0.5828
 5594SOL     OW18222   0.199   1.731   9.047  0.7947  0.5239  0.6241
 5594SOL    HW118223   0.123   1.763   8.999  1.3518  2.6473  1.0309
 5594SOL    HW218224   0.255   1.690   8.981  0.5180  1.3881 -0.1596
 5595SOL     OW18225   4.490   4.642   9.393 -0.2874  0.2505 -0.1103
 5595SOL    HW118226   4.505   4.614   9.483  0.1479 -1.3629 -0.6500
 5595SOL    HW218227   4.483   4.560   9.343 -1.8233  1.0792 -1.3485
 5596SOL     OW18228   6.258   1.608   7.095  0.1729  0.2972  0.2466
 5596SOL    HW118229   6.181   1.634   7.044  0.3825 -0.6766 -0.5876
 5596SOL    HW218230   6.251   1.513   7.104  1.2117  0.2101  0.2732
 5597SOL     OW18231   1.814   2.165   7.927 -0.5015  0.1141 -0.0135
 5597SOL    HW118232   1.804   2.095   7.863 -1.3144 -0.8615  1.1374
 5597SOL    HW218233   1.764   2.136   8.003  0.2558  1.3346  0.9988
 5598SOL     OW18234   5.606   1.626  12.118  0.0089  0.4170 -0.0859
 5598SOL    HW118235   5.626   1.556  12.181  0.5619  0.6350 -0.0097
 5598SOL    HW218236   5.511   1.623  12.108 -0.0507  0.1567  0.5063
 5599SOL     OW18237   6.914   2.772   1.926  0.8419 -0.4265  0.1854
 5599SOL    HW118238   6.946   2.775   1.836  0.8734 -1.0484  0.1721
 5599SOL    HW218239   6.826   2.810   1.922  1.6643  1.6554  0.2852
 5600SOL     OW18240   3.394   2.126   8.200 -0.3350  0.2722 -0.0029
 5600SOL    HW118241   3.401   2.147   8.293  1.6294 -0.9383  0.1755
 5600SOL    HW218242   3.373   2.210   8.158 -3.4492  0.4820  1.6510
 5601SOL     OW18243   5.811   4.886   0.338 -0.0251  0.2709 -0.0866
 5601SOL    HW118244   5.812   4.973   0.378 -0.5059  0.4330 -0.4139
 5601SOL    HW218245   5.721   4.875   0.307  0.1788 -0.1000 -0.5697
 5602SOL     OW18246   1.981   2.150   0.053 -0.4986  0.0723  0.3919
 5602SOL    HW118247   1.905   2.181   0.102 -0.7183  1.4226 -0.7313
 5602SOL    HW218248   1.966   2.182  -0.036  2.1828  1.8899  0.4631
 5603SOL     OW18249   7.778   0.397  12.424 -1.2971 -0.2323 -0.0203
 5603SOL    HW118250   7.700   0.390  12.479 -2.1073  1.1345 -0.9051
 5603SOL    HW218251   7.755   0.349  12.344 -1.9610  1.5583 -0.9734
 5604SOL     OW18252   7.906   7.855   6.041  0.3910 -0.1994 -0.0587
 5604SOL    HW118253   7.980   7.850   5.981  0.6173 -1.6606  0.2970
 5604SOL    HW218254   7.854   7.929   6.010  0.6578 -0.7244 -1.8529
 5605SOL     OW18255   6.639   5.590   8.465  0.7244 -0.5993  0.2019
 5605SOL    HW118256   6.613   5.509   8.509 -0.0437 -0.3879  0.1507
 5605SOL    HW218257   6.722   5.569   8.423  0.3359 -1.4751 -0.1399
 5606SOL     OW18258   7.065   5.143  12.048 -0.3757  0.1682 -0.3350
 5606SOL    HW118259   6.982   5.157  12.093 -0.2687 -1.5436  0.5264
 5606SOL    HW218260   7.119   5.217  12.073 -1.1518  0.5149  0.3553
 5607SOL     OW18261   1.895   0.357   9.079  0.8856  0.1634  0.7591
 5607SOL    HW118262   1.930   0.283   9.030  0.9174  0.5356  0.2042
 5607SOL    HW218263   1.967   0.420   9.083  0.2633  1.0373 -0.6062
 5608SOL     OW18264   5.258   3.575   7.158 -0.1733 -0.1891  0.8101
 5608SOL    HW118265   5.215   3.660   7.148 -0.7910 -0.3490  1.9085
 5608SOL    HW218266   5.351   3.596   7.162 -0.0416  0.1117 -2.1408
 5609SOL     OW18267   7.334   7.464  11.579  0.0325  0.6634  0.0714
 5609SOL    HW118268   7.352   7.394  11.516 -2.3931  2.2288 -2.6211
 5609SOL    HW218269   7.407   7.460  11.640  2.2308 -1.4884 -2.4066
 5610SOL     OW18270   6.436   2.796   5.681 -0.0510 -0.3022  0.1725
 5610SOL    HW118271   6.426   2.837   5.767  0.5771 -1.3407  0.7597
 5610SOL    HW218272   6.483   2.861   5.629  0.5630 -0.0933  0.9607
 5611SOL     OW18273   2.548   5.174  10.207  0.1416 -0.0022 -0.4581
 5611SOL    HW118274   2.627   5.227  10.204 -0.4473  1.0096  0.7245
 5611SOL    HW218275   2.519   5.180  10.298  0.0096 -2.3287 -0.2749
 5612SOL     OW18276   6.094   5.629   7.744 -0.2261  0.1826  0.0869
 5612SOL    HW118277   6.137   5.612   7.660  0.2326 -1.2552  0.5815
 5612SOL    HW218278   6.001   5.615   7.726 -0.0245 -1.3380  0.0669
 5613SOL     OW18279   1.446   5.451   4.135 -0.4188 -0.4985 -0.6162
 5613SOL    HW118280   1.443   5.376   4.076 -1.2044 -0.9595 -0.0133
 5613SOL    HW218281   1.536   5.481   4.131  0.2685 -2.2993  0.1403
 5614SOL     OW18282   0.607   1.703   5.385  0.2454 -0.4864  0.0790
 5614SOL    HW118283   0.622   1.615   5.351  1.3780 -0.3202  0.1247
 5614SOL    HW218284   0.667   1.759   5.335 -0.8186  0.3482 -0.3063
 5615SOL     OW18285   1.770   2.595   1.130 -0.3108  0.3468  0.4972
 5615SOL    HW118286   1.744   2.611   1.040 -0.3834 -1.4381  0.1724
 5615SOL    HW218287   1.699   2.542   1.167  0.4238 -0.2045  1.1492
 5616SOL     OW18288   3.051   3.081   6.679  0.1008 -0.0548 -0.7777
 5616SOL    HW118289   3.092   3.148   6.734 -1.5753  0.9763 -0.7044
 5616SOL    HW218290   3.025   3.013   6.741 -0.2990  0.3423 -0.4950
 5617SOL     OW18291   3.198   4.424   2.314 -0.2168  0.7530  0.0211
 5617SOL    HW118292   3.263   4.357   2.336 -1.2996 -0.2341  0.3057
 5617SOL    HW218293   3.132   4.378   2.261 -1.9549  1.1118  1.7609
 5618SOL     OW18294   7.521   7.324   9.914  0.4021 -0.1146 -0.6515
 5618SOL    HW118295   7.572   7.406   9.917 -0.6714  0.6564 -2.3250
 5618SOL    HW218296   7.430   7.353   9.907  0.0618 -1.4347 -2.0327
 5619SOL     OW18297   5.784   5.120   7.831 -0.5390  0.3221 -0.1995
 5619SOL    HW118298   5.813   5.150   7.745 -1.6401  1.1195 -0.3196
 5619SOL    HW218299   5.752   5.199   7.875 -4.5396 -0.6518 -0.9322
 5620SOL     OW18300   1.841   2.610   3.628 -0.0002  0.2635  0.2168
 5620SOL    HW118301   1.767   2.608   3.690  1.1207  1.0299  1.6300
 5620SOL    HW218302   1.918   2.592   3.682  1.0756  1.3671 -0.8941
 5621SOL     OW18303   3.725   3.745   4.826  0.4756  0.2933 -0.1745
 5621SOL    HW118304   3.700   3.794   4.748 -0.6131 -0.6119 -0.4179
 5621SOL    HW218305   3.729   3.810   4.896  1.5151  1.1229 -0.9752
 5622SOL     OW18306   1.439   7.853   3.186 -0.5105 -0.0945  0.2400
 5622SOL    HW118307   1.521   7.904   3.183 -1.3914  1.3412 -0.5690
 5622SOL    HW218308   1.440   7.812   3.272  1.7987 -1.4039 -0.3259
 5623SOL     OW18309   1.133   3.474  11.470 -0.6656  1.1364 -0.0769
 5623SOL    HW118310   1.133   3.459  11.375  0.6675  0.4812  0.0002
 5623SOL    HW218311   1.225   3.462  11.496 -1.1558  0.4033  1.4399
 5624SOL     OW18312   6.792   1.095  12.426 -0.4949  0.4769  0.0927
 5624SOL    HW118313   6.751   1.030  12.483 -1.1887  0.6515 -0.1915
 5624SOL    HW218314   6.728   1.109  12.356 -0.3097  1.3882  0.0923
 5625SOL     OW18315   2.940   6.465   3.955 -0.1369  0.5682  0.1404
 5625SOL    HW118316   2.869   6.415   3.916  0.0385  0.6907 -0.3524
 5625SOL    HW218317   3.020   6.418   3.929  0.0595  1.3367 -0.7238
 5626SOL     OW18318   2.158   6.271   6.967 -0.1263  0.7773  0.6091
 5626SOL    HW118319   2.134   6.358   6.998  1.1025  0.8885  1.3523
 5626SOL    HW218320   2.181   6.283   6.875  2.0672  1.7180  1.2020
 5627SOL     OW18321   1.226   4.347  10.966  0.0688  0.3554 -0.4097
 5627SOL    HW118322   1.212   4.320  11.056  0.3246  0.7688 -0.2444
 5627SOL    HW218323   1.184   4.278  10.914  0.7974 -0.4202  0.0015
 5628SOL     OW18324   0.619   7.220   3.292 -0.1763  0.2203 -0.0011
 5628SOL    HW118325   0.576   7.280   3.353  2.3697  1.0709  1.1244
 5628SOL    HW218326   0.702   7.263   3.272 -0.1181 -0.9536 -2.6300
 5629SOL     OW18327   4.210   2.110   2.855 -0.4260 -0.1674 -0.0413
 5629SOL    HW118328   4.279   2.108   2.921 -0.6616 -0.9345  0.1948
 5629SOL    HW218329   4.245   2.166   2.785  0.5267 -0.7152 -0.0224
 5630SOL     OW18330   5.584   0.831   7.064 -0.2375  0.4017  0.5082
 5630SOL    HW118331   5.605   0.899   7.128  0.1033  0.8652 -0.0918
 5630SOL    HW218332   5.495   0.852   7.035 -1.3191 -1.0998  2.4536
 5631SOL     OW18333   1.966   6.169   3.340  0.1709  0.2072  0.3213
 5631SOL    HW118334   1.878   6.189   3.371  1.3833  2.4395  2.8060
 5631SOL    HW218335   1.987   6.085   3.380 -0.1390  0.6500  1.4692
 5632SOL     OW18336   5.014   3.633   2.757 -0.0223  0.0775  0.0969
 5632SOL    HW118337   4.925   3.600   2.744  0.5798 -1.6770  0.1923
 5632SOL    HW218338   5.066   3.556   2.777  1.6458  0.9981 -0.4557
 5633SOL     OW18339   0.687   0.836   7.792  0.3500 -0.7816  0.1619
 5633SOL    HW118340   0.726   0.896   7.855 -1.0005  0.7065 -0.3373
 5633SOL    HW218341   0.601   0.814   7.829 -0.5160  0.2146 -1.1436
 5634SOL     OW18342   4.645   1.581   6.871  0.1653 -0.1835  0.4082
 5634SOL    HW118343   4.610   1.492   6.862  1.8217 -0.9729  1.2337
 5634SOL    HW218344   4.574   1.630   6.912 -0.2795 -1.5032  1.3008
 5635SOL     OW18345   4.470   5.739  11.735  0.9368  0.2314 -0.3694
 5635SOL    HW118346   4.465   5.712  11.827  0.7388  2.2368  0.2581
 5635SOL    HW218347   4.563   5.732  11.713  0.8937 -0.9496 -0.2772
 5636SOL     OW18348   6.292   3.758   7.440 -0.2135  0.2917  0.4806
 5636SOL    HW118349   6.321   3.729   7.354 -1.3369 -3.2200  1.0955
 5636SOL    HW218350   6.202   3.786   7.427 -0.6268 -0.9194  0.5389
 5637SOL     OW18351   2.141   2.908   6.670  0.4028  0.0492  0.0472
 5637SOL    HW118352   2.221   2.858   6.653 -0.5095 -0.9174 -1.6494
 5637SOL    HW218353   2.080   2.880   6.602 -0.6061  2.5358 -0.2014
 5638SOL     OW18354   7.768   1.970   2.560  0.1956  0.1790  0.2154
 5638SOL    HW118355   7.777   1.879   2.534 -0.2402  0.1529  0.1613
 5638SOL    HW218356   7.854   2.008   2.542  0.9448 -0.6212  1.8580
 5639SOL     OW18357   0.010   2.184   3.989  0.2223 -0.0628  0.1732
 5639SOL    HW118358   0.070   2.159   4.059 -1.4189 -1.6892  1.0604
 5639SOL    HW218359  -0.041   2.257   4.026  2.4647  2.3227 -1.0848
 5640SOL     OW18360   4.072   4.064   2.556  0.2450 -0.1233  0.5656
 5640SOL    HW118361   4.161   4.028   2.555  1.1628  1.9976 -0.2238
 5640SOL    HW218362   4.058   4.091   2.647  0.6154 -0.0358  0.5992
 5641SOL     OW18363   7.644   1.249   0.035 -0.0075  0.5812  0.3372
 5641SOL    HW118364   7.600   1.323  -0.008  1.0872  0.2688 -1.4333
 5641SOL    HW218365   7.663   1.281   0.123 -2.2241  1.3003  0.6230
 5642SOL     OW18366   7.850   4.862   3.938 -0.6995 -0.4046 -0.1148
 5642SOL    HW118367   7.793   4.785   3.944  0.7564 -1.7055 -1.7684
 5642SOL    HW218368   7.896   4.863   4.023 -1.1438 -1.0319  0.1465
 5643SOL     OW18369   3.213   3.096   9.751 -0.1799 -0.2231  0.1852
 5643SOL    HW118370   3.208   3.175   9.698 -0.4586 -0.6049 -0.3677
 5643SOL    HW218371   3.279   3.115   9.817 -1.8663  1.3383  1.5270
 5644SOL     OW18372   6.128   6.379   6.572 -0.2861 -0.0722 -0.6440
 5644SOL    HW118373   6.150   6.316   6.504 -1.5923  0.4106 -1.5618
 5644SOL    HW218374   6.088   6.453   6.524 -0.5420  0.6070  0.5661
 5645SOL     OW18375   4.032   6.326   0.685  0.0588  0.0703 -0.2353
 5645SOL    HW118376   4.095   6.349   0.754  0.4642 -0.3469 -0.4553
 5645SOL    HW218377   4.086   6.318   0.606 -0.3208  0.0018 -0.4882
 5646SOL     OW18378   4.621   6.554   7.562 -0.5354 -0.1357  0.4664
 5646SOL    HW118379   4.606   6.531   7.470 -3.1691 -0.5905  0.9227
 5646SOL    HW218380   4.658   6.475   7.601  1.1113  0.2343 -0.2701
 5647SOL     OW18381   0.791   4.918   6.248  0.4836  0.2400  0.3182
 5647SOL    HW118382   0.825   4.990   6.195  1.6042 -0.9574 -0.6445
 5647SOL    HW218383   0.696   4.931   6.247  0.2323 -0.7385 -3.5838
 5648SOL     OW18384   5.786   6.226   4.524  0.2444 -0.1144 -0.0369
 5648SOL    HW118385   5.834   6.250   4.445  0.2428  0.4766  0.1409
 5648SOL    HW218386   5.730   6.301   4.542  2.1939  0.9404  2.0687
 5649SOL     OW18387   4.547   2.995   6.752  0.4927 -0.1341 -0.0341
 5649SOL    HW118388   4.600   2.993   6.673  1.0869  0.9325  0.3123
 5649SOL    HW218389   4.546   3.087   6.778  4.3967 -0.8963  3.8830
 5650SOL     OW18390   4.195   6.603   2.990  0.5389 -0.1038  0.4773
 5650SOL    HW118391   4.211   6.527   3.045  0.4705  0.3859  1.1900
 5650SOL    HW218392   4.102   6.598   2.968  0.7617 -0.7746 -0.3280
 5651SOL     OW18393   2.761   7.678   4.328  0.0620 -0.6113 -0.0602
 5651SOL    HW118394   2.802   7.637   4.404 -0.9859 -0.3909  0.6432
 5651SOL    HW218395   2.788   7.770   4.332  0.1066 -0.6266 -0.0170
 5652SOL     OW18396   1.871   6.324   0.294 -0.0808 -0.1669 -0.5002
 5652SOL    HW118397   1.946   6.280   0.334  0.8768 -0.2287 -2.2566
 5652SOL    HW218398   1.881   6.416   0.319  0.2025 -0.2830 -0.1679
 5653SOL     OW18399   3.316   4.888  10.560  0.9603  0.1769  0.2210
 5653SOL    HW118400   3.408   4.902  10.536  1.1941 -1.0627  0.3500
 5653SOL    HW218401   3.314   4.902  10.654  0.8696  0.8780  0.1234
 5654SOL     OW18402   1.016   0.413   8.611  0.0049  0.6574  0.2918
 5654SOL    HW118403   1.010   0.481   8.544 -0.7723 -0.0298 -0.3565
 5654SOL    HW218404   1.000   0.459   8.693  0.0859  1.3600 -0.0757
 5655SOL     OW18405   3.611   7.951  10.532 -0.0548 -0.1942  0.1529
 5655SOL    HW118406   3.672   7.905  10.590  0.7213 -1.7043 -1.7108
 5655SOL    HW218407   3.661   7.963  10.451 -1.3687  1.0047 -0.5101
 5656SOL     OW18408   0.869   4.946   2.367 -0.1670 -0.5891  0.3370
 5656SOL    HW118409   0.922   4.870   2.388  2.4139  0.8379 -0.6390
 5656SOL    HW218410   0.874   5.002   2.445  1.7271  0.5365 -0.5176
 5657SOL     OW18411   3.564   5.169  10.921  0.1080  0.4622 -0.6854
 5657SOL    HW118412   3.585   5.233  10.989 -0.0736  0.3575 -0.5296
 5657SOL    HW218413   3.648   5.139  10.889  0.2743 -1.5429  1.3971
 5658SOL     OW18414   1.094   2.537  11.332 -0.4052 -0.3644 -0.3142
 5658SOL    HW118415   1.054   2.483  11.401  0.2335 -0.6102 -0.1297
 5658SOL    HW218416   1.040   2.616  11.330  0.4624  0.3352  1.5399
 5659SOL     OW18417   2.847   0.133   6.141 -0.1962 -0.0364  0.3677
 5659SOL    HW118418   2.819   0.110   6.052 -0.5709 -2.5716  1.0544
 5659SOL    HW218419   2.895   0.215   6.130 -2.2460  1.0192 -1.8135
 5660SOL     OW18420   1.393   3.301   1.347 -0.0792 -0.2120  0.4814
 5660SOL    HW118421   1.391   3.391   1.379 -1.7848 -0.2446  0.5409
 5660SOL    HW218422   1.462   3.301   1.281  0.4480  0.9507  0.9958
 5661SOL     OW18423   0.586   7.484   5.425  0.6013 -0.5476  0.3820
 5661SOL    HW118424   0.597   7.431   5.346 -1.4093 -0.5554  0.0611
 5661SOL    HW218425   0.553   7.568   5.392 -1.5352 -0.9912  1.2750
 5662SOL     OW18426   4.482   6.710   5.665  0.3911  0.2681 -0.4551
 5662SOL    HW118427   4.473   6.618   5.641  0.5556  0.4934 -1.4233
 5662SOL    HW218428   4.459   6.713   5.758 -0.3262 -0.6377 -0.5875
 5663SOL     OW18429   7.871   7.448   4.405 -0.3917 -0.0438 -0.4023
 5663SOL    HW118430   7.938   7.390   4.369  1.7295  2.2699 -0.4727
 5663SOL    HW218431   7.829   7.397   4.473  1.7466 -1.5060 -0.0823
 5664SOL     OW18432   5.505   4.174   5.163 -0.3997  0.5730 -0.5549
 5664SOL    HW118433   5.429   4.149   5.110 -0.1226 -1.6645  0.0310
 5664SOL    HW218434   5.564   4.099   5.159 -0.1748  0.4667  2.5624
 5665SOL     OW18435   6.234   5.878   0.358  0.3931  0.4331  0.2300
 5665SOL    HW118436   6.265   5.805   0.305 -0.1753  1.1530 -1.1401
 5665SOL    HW218437   6.154   5.845   0.400 -1.0226  0.8198 -1.9704
 5666SOL     OW18438   3.446   6.620   7.919 -0.3184  0.1016 -0.1230
 5666SOL    HW118439   3.396   6.595   7.997 -0.8662  0.6269 -0.3000
 5666SOL    HW218440   3.421   6.555   7.853  2.5515 -2.3832  0.9579
 5667SOL     OW18441   5.579   6.690   8.512  0.3922 -0.0749 -0.4910
 5667SOL    HW118442   5.510   6.698   8.446  0.4857  1.6499 -0.4278
 5667SOL    HW218443   5.578   6.598   8.537 -1.5163 -0.2144 -0.8958
 5668SOL     OW18444   7.803   4.981   7.295  0.3827 -0.5490  0.4337
 5668SOL    HW118445   7.850   5.064   7.301  1.7143 -1.3610  1.9778
 5668SOL    HW218446   7.712   5.006   7.281  0.8528  1.1368  0.1631
 5669SOL     OW18447   7.222   4.033   9.171 -0.3930 -0.1672  0.4793
 5669SOL    HW118448   7.210   3.954   9.118 -0.1918  1.0921 -1.5122
 5669SOL    HW218449   7.140   4.042   9.219 -2.1506  0.6769 -2.4558
 5670SOL     OW18450   5.302   4.092   4.977 -0.6654 -0.5967  0.0146
 5670SOL    HW118451   5.289   4.161   4.913  1.3643 -0.7256 -0.5934
 5670SOL    HW218452   5.320   4.013   4.925 -1.2713 -1.2283  0.7232
 5671SOL     OW18453   5.846   5.991   5.619  0.1924 -0.2618  0.6965
 5671SOL    HW118454   5.770   5.962   5.568  0.3861 -0.0152  0.2606
 5671SOL    HW218455   5.814   6.066   5.670 -0.6052 -1.8340  2.6484
 5672SOL     OW18456   0.702   7.327   8.937  0.6950 -0.1803  0.3292
 5672SOL    HW118457   0.792   7.335   8.905  1.0994 -1.7288  0.9851
 5672SOL    HW218458   0.650   7.309   8.858  0.9255  0.8109 -0.0610
 5673SOL     OW18459   5.775   5.814   6.160 -0.2167  0.4592 -0.3383
 5673SOL    HW118460   5.841   5.745   6.172 -0.1764  0.6567  0.6244
 5673SOL    HW218461   5.755   5.811   6.067  0.9080  0.1652 -0.5904
 5674SOL     OW18462   5.325   1.705   4.301  0.0122  0.3856  0.7076
 5674SOL    HW118463   5.411   1.665   4.294  0.4503  1.1841  1.3453
 5674SOL    HW218464   5.334   1.791   4.259 -0.7639  0.0522 -0.1707
 5675SOL     OW18465   2.054   5.724  11.874  0.5727 -0.2278  0.2350
 5675SOL    HW118466   2.076   5.677  11.794  1.5441  2.9648 -1.5420
 5675SOL    HW218467   1.959   5.725  11.877  0.5324 -0.7299 -0.6606
 5676SOL     OW18468   3.589   2.814   6.836 -0.2909  0.3075 -0.3918
 5676SOL    HW118469   3.623   2.901   6.856 -0.2570  0.3993 -0.8370
 5676SOL    HW218470   3.501   2.813   6.874  0.5507 -0.2979  1.6961
 5677SOL     OW18471   6.007   1.094   5.126 -0.4066  0.0764 -0.5481
 5677SOL    HW118472   6.102   1.098   5.141 -0.2565  0.2402 -1.4576
 5677SOL    HW218473   5.971   1.066   5.210  0.3700  0.8273  0.0666
 5678SOL     OW18474   4.739   4.662   4.476 -0.4152  0.0282 -0.5275
 5678SOL    HW118475   4.730   4.653   4.381 -0.6870 -0.1153 -0.4880
 5678SOL    HW218476   4.651   4.682   4.507 -0.4496 -0.5428 -0.2382
 5679SOL     OW18477   1.168   2.565   4.747  0.2575  0.4687 -0.5338
 5679SOL    HW118478   1.201   2.646   4.709 -2.0974  1.7017 -0.1480
 5679SOL    HW218479   1.169   2.581   4.842 -1.0700  0.4378 -0.4990
 5680SOL     OW18480   6.453   2.539  10.990  0.5020 -0.3538 -0.7485
 5680SOL    HW118481   6.432   2.465  10.934 -2.7501 -0.8958  0.9237
 5680SOL    HW218482   6.374   2.593  10.988  0.2133 -0.3635  3.1220
 5681SOL     OW18483   0.539   5.684   2.106  0.6110  0.6428 -0.1108
 5681SOL    HW118484   0.566   5.655   2.019 -0.1160 -0.8481  0.1262
 5681SOL    HW218485   0.571   5.615   2.165 -2.3605 -0.4872  0.3255
 5682SOL     OW18486   1.850   1.976   4.929  0.5372 -0.4512  0.6562
 5682SOL    HW118487   1.763   1.943   4.949  0.2557 -0.1160  0.0103
 5682SOL    HW218488   1.879   1.923   4.855  1.2723 -1.1960  1.4487
 5683SOL     OW18489   1.225   3.769   6.617 -0.0683  0.2554 -0.3299
 5683SOL    HW118490   1.198   3.698   6.675 -1.4128  0.5849 -0.5184
 5683SOL    HW218491   1.177   3.846   6.648 -1.3908  0.2774 -2.2929
 5684SOL     OW18492   2.702   6.412   6.018  0.1051  0.0901 -0.3926
 5684SOL    HW118493   2.608   6.395   6.022 -0.2233  0.9881 -2.5257
 5684SOL    HW218494   2.732   6.361   5.942  1.3365 -0.1454  0.2325
 5685SOL     OW18495   6.582   6.393  11.926 -0.0001 -0.0387 -0.0189
 5685SOL    HW118496   6.625   6.355  12.003 -4.3472  0.2617  2.8887
 5685SOL    HW218497   6.579   6.487  11.945 -0.8265  0.0887 -0.7440
 5686SOL     OW18498   2.094   6.457  11.414 -0.3851 -0.1014  0.1235
 5686SOL    HW118499   2.011   6.447  11.460 -0.5524 -0.7900 -0.3224
 5686SOL    HW218500   2.131   6.538  11.450 -1.5282  0.5469 -0.1087
 5687SOL     OW18501   1.804   2.406   8.755 -0.2293  0.0524 -0.2469
 5687SOL    HW118502   1.728   2.349   8.741 -1.2845  1.5926 -1.0781
 5687SOL    HW218503   1.861   2.356   8.813 -1.1752 -1.7736 -0.8165
 5688SOL     OW18504   2.449   3.478   8.585 -0.8317  0.1928  0.4469
 5688SOL    HW118505   2.402   3.557   8.612 -1.5882 -0.3056  0.6194
 5688SOL    HW218506   2.382   3.409   8.584 -0.3423 -0.2922 -0.4192
 5689SOL     OW18507   6.009   2.656   5.249 -0.0817 -0.1509  0.0220
 5689SOL    HW118508   5.976   2.577   5.291 -2.3675  1.0012  0.5265
 5689SOL    HW218509   6.094   2.671   5.291  0.1824 -2.0347  0.2517
 5690SOL     OW18510   1.621   7.288   4.099  0.2296 -0.1204 -0.9915
 5690SOL    HW118511   1.599   7.351   4.167  3.1568 -1.5075  1.4364
 5690SOL    HW218512   1.556   7.218   4.109  1.7794 -1.2970  1.9240
 5691SOL     OW18513   1.336   2.339  10.325  0.4289 -1.2054  0.6685
 5691SOL    HW118514   1.386   2.421  10.327 -0.9893 -0.2124 -1.1068
 5691SOL    HW218515   1.263   2.354  10.386 -2.4880  0.8574 -2.9280
 5692SOL     OW18516   3.450   0.810   3.261  0.5009 -0.3314  0.1851
 5692SOL    HW118517   3.491   0.844   3.341  1.0512 -0.5373 -0.0065
 5692SOL    HW218518   3.364   0.853   3.259  0.8484  0.3983  0.3925
 5693SOL     OW18519   2.470   0.761   8.192 -0.3303 -0.0377  0.0501
 5693SOL    HW118520   2.435   0.672   8.183  1.5386 -0.8922  0.6586
 5693SOL    HW218521   2.431   0.793   8.274  1.6027 -1.6864  1.7352
 5694SOL     OW18522   3.144   1.018   8.338  0.2483 -0.1653 -0.5331
 5694SOL    HW118523   3.111   1.040   8.425  0.4069  0.3576 -0.6003
 5694SOL    HW218524   3.198   0.941   8.351  0.4572  0.0466 -0.1300
 5695SOL     OW18525   3.129   2.946   3.862 -0.2001 -0.1980 -0.0633
 5695SOL    HW118526   3.156   2.878   3.801 -0.4683 -1.2031  0.9007
 5695SOL    HW218527   3.165   2.918   3.946 -1.9170 -0.1484  0.7308
 5696SOL     OW18528   0.436   4.992   7.067 -0.1300 -0.2728 -0.2151
 5696SOL    HW118529   0.420   4.948   7.151  2.0989 -0.5724  0.1226
 5696SOL    HW218530   0.505   5.056   7.087  0.2386 -0.1504 -1.7498
 5697SOL     OW18531   5.230   4.024   5.346  0.1863  0.1619  0.0400
 5697SOL    HW118532   5.209   4.115   5.364  0.5680  0.3974 -0.6580
 5697SOL    HW218533   5.212   3.978   5.428  0.3580  0.9280  0.5132
 5698SOL     OW18534   7.027   0.425  10.856  0.0708 -0.3197  0.0404
 5698SOL    HW118535   6.983   0.411  10.940 -0.6946 -0.7709 -0.4290
 5698SOL    HW218536   6.973   0.491  10.812  0.5789  0.0566 -0.0250
 5699SOL     OW18537   2.336   2.754   4.511 -0.3037  0.0210 -0.1572
 5699SOL    HW118538   2.247   2.790   4.506 -0.1486  0.4443  0.0403
 5699SOL    HW218539   2.336   2.704   4.592 -1.0047 -1.7987 -1.2343
 5700SOL     OW18540   4.508   7.174   2.435  0.2686  0.1476 -0.3419
 5700SOL    HW118541   4.570   7.111   2.471  0.1072  1.0691  1.6825
 5700SOL    HW218542   4.563   7.244   2.400  0.4616  0.8980  1.3296
 5701SOL     OW18543   7.913   4.779   6.062 -0.3189 -0.4297  0.0041
 5701SOL    HW118544   7.844   4.786   5.996  0.1036  0.3574 -0.3745
 5701SOL    HW218545   7.923   4.869   6.095  1.1716 -0.3334 -0.6357
 5702SOL     OW18546   2.236   5.170   5.556 -0.2774 -0.1773  0.2365
 5702SOL    HW118547   2.286   5.155   5.637  0.9013  0.0612 -0.4289
 5702SOL    HW218548   2.282   5.119   5.490 -0.2706  0.9132 -0.6239
 5703SOL     OW18549   1.746   2.164   2.964  0.9578 -0.0082 -0.2359
 5703SOL    HW118550   1.653   2.147   2.949  0.3719  0.1747  2.5662
 5703SOL    HW218551   1.766   2.238   2.907 -0.1814 -0.9710 -1.9831
 5704SOL     OW18552   7.808   2.301   2.033  0.5403  0.2032 -0.5516
 5704SOL    HW118553   7.743   2.362   1.997 -2.9573 -2.1554  1.1365
 5704SOL    HW218554   7.799   2.223   1.978  0.6358 -0.7635  0.7507
 5705SOL     OW18555   2.703   6.223   4.449  0.1306 -0.4026 -0.3116
 5705SOL    HW118556   2.790   6.217   4.488  0.4165  1.2242 -0.6282
 5705SOL    HW218557   2.720   6.249   4.358 -0.6972  1.3100 -0.0215
 5706SOL     OW18558   3.180   0.299   0.891  0.4432  0.0144 -0.0565
 5706SOL    HW118559   3.224   0.295   0.975  2.1878  1.2890 -0.8535
 5706SOL    HW218560   3.221   0.229   0.839 -0.4350 -0.5888  0.0198
 5707SOL     OW18561   4.142   1.922  12.195  0.0832 -0.4796  0.2679
 5707SOL    HW118562   4.094   1.839  12.198  0.5700 -0.7881 -0.2367
 5707SOL    HW218563   4.234   1.898  12.202  0.4240 -0.2273 -2.2269
 5708SOL     OW18564   2.091   1.524   6.070  0.1247  0.5353  0.2071
 5708SOL    HW118565   2.055   1.591   6.129  1.4778  1.8867 -0.4404
 5708SOL    HW218566   2.099   1.569   5.986 -0.1304 -0.8501 -0.5811
 5709SOL     OW18567   5.924   0.061   4.273  1.5501 -0.2262  0.6478
 5709SOL    HW118568   5.940  -0.021   4.318  1.7730 -0.6858 -0.2482
 5709SOL    HW218569   5.903   0.036   4.183  0.2356  0.6114  0.6790
 5710SOL     OW18570   4.647   0.196   6.751 -0.0392  0.2861  0.3081
 5710SOL    HW118571   4.621   0.105   6.769  0.7023 -0.6251 -2.6992
 5710SOL    HW218572   4.736   0.202   6.786  0.1159 -0.3344  0.0396
 5711SOL     OW18573   3.075   2.462   0.039 -0.3576  0.1765  0.6184
 5711SOL    HW118574   3.008   2.401   0.008 -0.7240  0.2295  1.2856
 5711SOL    HW218575   3.138   2.407   0.086  0.0509  0.1321  0.0267
 5712SOL     OW18576   7.641   7.906   0.742  0.1064  0.1300 -0.3170
 5712SOL    HW118577   7.548   7.922   0.760  0.0392  0.4397 -0.9013
 5712SOL    HW218578   7.646   7.900   0.646  0.6909  0.1418 -0.2900
 5713SOL     OW18579   7.020   2.479   5.071  0.6217 -0.3353 -0.0507
 5713SOL    HW118580   6.988   2.396   5.036  0.6132 -0.3110 -0.1010
 5713SOL    HW218581   7.096   2.455   5.123  0.4591 -0.4074  0.1596
 5714SOL     OW18582   3.682   2.807   0.391 -0.2222 -0.0979 -0.2135
 5714SOL    HW118583   3.724   2.875   0.444  0.7758  0.1746 -1.3170
 5714SOL    HW218584   3.588   2.825   0.399  0.0399  1.9450 -1.1435
 5715SOL     OW18585   0.838   6.681   8.377  0.3548  0.0584  0.2593
 5715SOL    HW118586   0.854   6.652   8.287 -1.1232  0.2885 -0.0963
 5715SOL    HW218587   0.923   6.714   8.406  1.7121 -2.9550  0.0938
 5716SOL     OW18588   4.493   4.180  12.070  0.4061 -0.2633  0.2810
 5716SOL    HW118589   4.530   4.228  12.144 -0.4778  0.6432  0.1518
 5716SOL    HW218590   4.561   4.184  12.003  0.6481  0.1358  0.5448
 5717SOL     OW18591   7.173   1.832   0.996  0.0558  0.4150 -0.2102
 5717SOL    HW118592   7.118   1.857   1.071 -1.2711 -1.3676 -0.5254
 5717SOL    HW218593   7.111   1.811   0.927  1.1977 -0.2706 -1.0574
 5718SOL     OW18594   5.749   3.952  10.893  0.2513 -0.7871 -0.7221
 5718SOL    HW118595   5.805   3.922  10.822  0.2178 -3.1402  0.1612
 5718SOL    HW218596   5.739   3.875  10.950 -1.7244  0.3091  0.5225
 5719SOL     OW18597   4.723   6.594  11.873  0.2139 -0.2081  0.1238
 5719SOL    HW118598   4.666   6.524  11.904  0.6106 -0.6633 -0.1542
 5719SOL    HW218599   4.751   6.565  11.786 -0.5773  0.8699 -0.5034
 5720SOL     OW18600   5.324   2.077   5.080  0.3801 -0.4788 -0.9485
 5720SOL    HW118601   5.337   2.092   5.174  1.0638  0.8714 -1.2411
 5720SOL    HW218602   5.407   2.041   5.049  1.5863  2.6273 -1.6983
 5721SOL     OW18603   4.174   7.501   4.011  0.0129  0.1082 -0.3648
 5721SOL    HW118604   4.146   7.494   4.103  0.3611  1.6516 -0.1226
 5721SOL    HW218605   4.140   7.585   3.981 -0.3660 -0.5171 -1.7691
 5722SOL     OW18606   5.329   0.352  11.750  0.1997  0.2070  0.3734
 5722SOL    HW118607   5.253   0.318  11.798 -2.2761  2.5160 -1.5622
 5722SOL    HW218608   5.351   0.434  11.796  0.2666  0.4899 -0.1587
 5723SOL     OW18609   2.129   5.350   9.389 -0.0565 -0.4334  0.2793
 5723SOL    HW118610   2.129   5.412   9.316  1.0143  1.4043  1.7789
 5723SOL    HW218611   2.204   5.294   9.373 -0.4778 -0.7642 -0.5937
 5724SOL     OW18612   7.577   3.769   5.690 -0.4188 -0.0204 -0.0944
 5724SOL    HW118613   7.664   3.731   5.681 -0.2207  0.7765 -2.2655
 5724SOL    HW218614   7.559   3.806   5.603 -2.9922 -0.3293  0.2401
 5725SOL     OW18615   2.681   5.605   9.015  0.4241  0.3896 -0.4170
 5725SOL    HW118616   2.590   5.604   9.045  0.4157  0.3932 -0.4428
 5725SOL    HW218617   2.702   5.698   9.008  1.1775  0.4566  1.8385
 5726SOL     OW18618   7.759   5.782  10.457 -0.0663  0.1491  0.0789
 5726SOL    HW118619   7.675   5.762  10.415  1.2326 -1.3212 -2.0316
 5726SOL    HW218620   7.760   5.877  10.465 -0.7509  0.4592 -2.6234
 5727SOL     OW18621   7.125   7.430   4.425  0.5524 -0.1861 -0.0259
 5727SOL    HW118622   7.085   7.366   4.367  1.7323 -0.6449 -0.3743
 5727SOL    HW218623   7.117   7.513   4.379  0.5585 -0.3737 -0.3670
 5728SOL     OW18624   4.108   1.099   8.781  0.3385  0.4205 -0.3034
 5728SOL    HW118625   4.063   1.091   8.697 -0.7677 -0.2405  0.3179
 5728SOL    HW218626   4.138   1.010   8.801 -1.8814 -0.0635  1.2785
 5729SOL     OW18627   6.141   5.722   2.462 -0.0875  0.0944 -0.2887
 5729SOL    HW118628   6.191   5.693   2.385  0.6885 -3.1835  1.2770
 5729SOL    HW218629   6.050   5.717   2.435  0.1243 -1.9128 -0.7993
 5730SOL     OW18630   2.413   1.501   3.500 -0.4249  0.1386  0.6637
 5730SOL    HW118631   2.347   1.566   3.477 -1.2042 -0.5742  0.7967
 5730SOL    HW218632   2.482   1.550   3.544 -0.4834  1.0207 -0.2096
 5731SOL     OW18633   4.928   0.801  11.825  0.2407 -0.4295 -0.4858
 5731SOL    HW118634   4.939   0.753  11.907  1.6260  0.0886 -0.3330
 5731SOL    HW218635   4.982   0.754  11.762  0.7374  0.2681 -0.6001
 5732SOL     OW18636   4.514   5.355   2.259  0.1851 -0.2821 -0.2739
 5732SOL    HW118637   4.588   5.347   2.319  1.4355 -2.1225 -1.9215
 5732SOL    HW218638   4.469   5.435   2.287  2.2342  0.3965  1.3888
 5733SOL     OW18639   5.898   2.449   9.207  0.4090 -0.1929 -0.4549
 5733SOL    HW118640   5.990   2.434   9.226  0.3316  0.2449  0.2930
 5733SOL    HW218641   5.898   2.504   9.129  0.8119  0.6650  0.1348
 5734SOL     OW18642   0.197   5.134   7.698 -0.2541  0.4637  0.2901
 5734SOL    HW118643   0.154   5.197   7.640 -2.3786 -0.7466  0.4385
 5734SOL    HW218644   0.289   5.159   7.697 -0.7446  2.4506 -1.0467
 5735SOL     OW18645   4.359   5.155   7.988 -0.1091  0.9528 -0.3407
 5735SOL    HW118646   4.450   5.135   7.966 -0.0383 -0.0161  0.7165
 5735SOL    HW218647   4.310   5.079   7.959 -0.4045  0.9345  0.1888
 5736SOL     OW18648   3.202   1.487   8.551 -0.0354  0.1385 -0.1699
 5736SOL    HW118649   3.259   1.503   8.627 -1.2514 -0.9218  1.0304
 5736SOL    HW218650   3.166   1.572   8.529  2.0024  0.8474 -0.9924
 5737SOL     OW18651   0.355   0.671   8.847  0.0714  0.3857 -0.1543
 5737SOL    HW118652   0.439   0.673   8.893 -0.4498  1.3148  0.7934
 5737SOL    HW218653   0.298   0.619   8.904 -0.5459  1.4422  0.2197
 5738SOL     OW18654   5.739   5.947   2.471 -0.0383 -0.2960 -0.5897
 5738SOL    HW118655   5.649   5.915   2.466  0.2805 -1.5038  0.8693
 5738SOL    HW218656   5.793   5.873   2.445  0.5788  0.2602 -0.9350
 5739SOL     OW18657   3.281   5.957   4.008 -0.4456  0.0342  0.3271
 5739SOL    HW118658   3.311   6.044   4.034 -0.9088  0.4568 -0.5014
 5739SOL    HW218659   3.289   5.957   3.912 -1.9659 -0.2470  0.1747
 5740SOL     OW18660   3.385   2.885  12.258  0.1668 -0.3334 -0.2102
 5740SOL    HW118661   3.292   2.887  12.280  0.0750 -1.2777 -0.4640
 5740SOL    HW218662   3.429   2.915  12.337 -0.3279 -0.3550  0.0766
 5741SOL     OW18663   6.871   0.026   7.616 -0.2815  0.0713 -0.1407
 5741SOL    HW118664   6.862   0.024   7.520  0.5474 -0.0656 -0.2184
 5741SOL    HW218665   6.812   0.096   7.643 -2.3940 -1.4632 -0.5138
 5742SOL     OW18666   7.148   6.397   5.192 -0.4495  0.6318  0.0039
 5742SOL    HW118667   7.153   6.337   5.266 -0.9602 -0.2358 -0.6329
 5742SOL    HW218668   7.122   6.481   5.230 -1.0011  0.1272  0.7728
 5743SOL     OW18669   0.612   2.769   2.322  0.1051 -0.0881 -0.1582
 5743SOL    HW118670   0.653   2.687   2.295  0.9995 -0.2943  1.6645
 5743SOL    HW218671   0.525   2.743   2.355 -0.6124  0.0496 -1.8543
 5744SOL     OW18672   7.593   7.220  11.158  0.3045  0.2440  0.1716
 5744SOL    HW118673   7.596   7.209  11.253  0.9583 -0.9369  0.0483
 5744SOL    HW218674   7.584   7.314  11.144 -0.5478  0.3649  1.4035
 5745SOL     OW18675   5.436   1.796   8.689 -0.0545  0.4585 -0.3899
 5745SOL    HW118676   5.460   1.777   8.599 -1.3172 -0.0491 -0.6494
 5745SOL    HW218677   5.348   1.759   8.698 -0.2376  1.1465  0.8321
 5746SOL     OW18678   6.650   0.592   6.143 -0.3706  0.6244 -0.4915
 5746SOL    HW118679   6.635   0.608   6.050 -0.4769  1.5751 -0.3254
 5746SOL    HW218680   6.744   0.577   6.150 -0.1634  1.7396 -0.6149
 5747SOL     OW18681   2.835   5.457   7.349  0.2510 -0.1518  0.3326
 5747SOL    HW118682   2.764   5.494   7.401  0.5297 -0.3147  0.8401
 5747SOL    HW218683   2.825   5.362   7.360  0.3724 -0.1821  0.1727
 5748SOL     OW18684   0.546   5.019   4.678  0.2430 -0.2220  0.4844
 5748SOL    HW118685   0.465   5.016   4.729 -1.2298 -1.2586 -1.7688
 5748SOL    HW218686   0.603   4.954   4.720 -0.8539 -0.9277  0.9176
 5749SOL     OW18687   1.612   5.056   0.507 -0.4706  0.5248 -0.0982
 5749SOL    HW118688   1.559   5.122   0.461  0.2965 -0.3191 -2.3430
 5749SOL    HW218689   1.701   5.092   0.507 -0.6503  1.0634  1.9144
 5750SOL     OW18690   0.920   3.477   8.826 -0.4417 -0.2230  0.2554
 5750SOL    HW118691   0.999   3.477   8.880 -0.2836 -0.0537  0.0250
 5750SOL    HW218692   0.880   3.391   8.842 -0.2806 -0.2598  0.4703
 5751SOL     OW18693   2.417   7.734  11.422 -0.5163 -0.1172  0.9190
 5751SOL    HW118694   2.367   7.782  11.357 -0.8565 -1.6246  0.0058
 5751SOL    HW218695   2.443   7.799  11.487  0.3093  1.5492 -0.9955
 5752SOL     OW18696   5.613   2.023   8.342  0.0266 -0.3674 -0.3501
 5752SOL    HW118697   5.590   1.940   8.383  1.0910 -0.9599 -0.9075
 5752SOL    HW218698   5.562   2.088   8.389  0.9062 -1.0681  1.6958
 5753SOL     OW18699   3.622   0.586   4.496 -0.1642 -0.3005  0.2843
 5753SOL    HW118700   3.679   0.567   4.571  0.1050 -1.4638 -0.1935
 5753SOL    HW218701   3.539   0.612   4.535  0.1008 -0.4850  0.9920
 5754SOL     OW18702   4.681   1.661   2.292  0.6278 -0.2642 -0.3834
 5754SOL    HW118703   4.754   1.624   2.242  0.0986 -1.2677 -0.4538
 5754SOL    HW218704   4.613   1.594   2.287  0.2581 -0.0268  0.9887
 5755SOL     OW18705   0.253   1.574   9.255  0.6011  0.1049  0.2446
 5755SOL    HW118706   0.248   1.646   9.318  2.9509  0.2707  0.3409
 5755SOL    HW218707   0.230   1.615   9.171 -1.5417  0.1099  0.7818
 5756SOL     OW18708   2.734   7.913   7.867 -0.0894 -0.4627  0.1190
 5756SOL    HW118709   2.676   7.908   7.943 -0.8545 -0.3723 -0.4579
 5756SOL    HW218710   2.794   7.838   7.879  0.3726  0.0590  1.2618
 5757SOL     OW18711   7.393   1.472   6.267 -0.0397  0.1983 -0.0127
 5757SOL    HW118712   7.404   1.394   6.322 -1.2994 -0.3015 -0.4415
 5757SOL    HW218713   7.481   1.511   6.264  0.2185 -0.1467  1.7619
 5758SOL     OW18714   1.556   7.421  12.335 -0.3224 -0.1807 -0.4932
 5758SOL    HW118715   1.556   7.415  12.239 -0.5205 -0.5314 -0.4735
 5758SOL    HW218716   1.627   7.482  12.355 -1.3665  1.2215 -0.9464
 5759SOL     OW18717   5.997   3.781   2.715 -0.5243 -0.4449  0.4638
 5759SOL    HW118718   5.980   3.751   2.626  0.4046 -0.2142  0.2013
 5759SOL    HW218719   6.067   3.724   2.746 -0.5067 -0.2000  0.8791
 5760SOL     OW18720   6.127   2.709   4.589  0.2553  0.4509  0.2799
 5760SOL    HW118721   6.193   2.685   4.654 -0.7300 -0.3228  1.0235
 5760SOL    HW218722   6.055   2.649   4.606  0.7061 -1.1509 -2.8097
 5761SOL     OW18723   3.193   3.103   6.448  0.3714  0.0113  0.0718
 5761SOL    HW118724   3.132   3.095   6.522  0.3677  0.2346  0.0915
 5761SOL    HW218725   3.233   3.189   6.459 -0.0211  0.2700 -0.4860
 5762SOL     OW18726   0.107   7.339   5.876 -0.7131 -0.8286 -0.1101
 5762SOL    HW118727   0.158   7.402   5.825 -1.7004 -0.9319 -1.2421
 5762SOL    HW218728   0.131   7.358   5.967 -2.2949  2.4314 -0.2207
 5763SOL     OW18729   3.766   5.234   3.724  0.2661 -0.0669  0.3945
 5763SOL    HW118730   3.677   5.263   3.701  0.4120  0.7189  0.7729
 5763SOL    HW218731   3.754   5.180   3.802  0.2018  0.7966  0.9999
 5764SOL     OW18732   1.177   3.964   6.805  0.7229 -0.0129  0.3414
 5764SOL    HW118733   1.194   4.052   6.840 -0.6540  0.9740 -1.3286
 5764SOL    HW218734   1.124   3.921   6.872 -0.4480  1.2419  0.2673
 5765SOL     OW18735   2.051   0.535   3.166  0.3150  0.0776 -0.3315
 5765SOL    HW118736   1.968   0.491   3.146 -0.3806  0.7338  1.0041
 5765SOL    HW218737   2.082   0.566   3.081 -0.2201 -1.1743 -1.0085
 5766SOL     OW18738   5.138   6.828   0.884 -0.1132 -0.5055  0.3563
 5766SOL    HW118739   5.115   6.866   0.799  0.2683 -0.3578  0.3200
 5766SOL    HW218740   5.094   6.743   0.884 -1.8467  0.3516  0.8731
 5767SOL     OW18741   6.643   4.423   6.535 -0.6602 -0.5733 -0.4269
 5767SOL    HW118742   6.723   4.386   6.498  1.2489  1.2726  1.5689
 5767SOL    HW218743   6.652   4.409   6.630 -2.0280  0.8707 -0.0486
 5768SOL     OW18744   7.106   5.247   3.889 -0.3373 -0.6976 -0.2318
 5768SOL    HW118745   7.084   5.323   3.834 -0.9110  0.0067  0.9315
 5768SOL    HW218746   7.193   5.266   3.923 -1.1588  0.2995  1.4252
 5769SOL     OW18747   6.643   3.668   0.182  0.0765  0.0076  0.5356
 5769SOL    HW118748   6.737   3.667   0.201  0.7042  1.9195 -1.8797
 5769SOL    HW218749   6.621   3.577   0.164  1.7703 -0.3364  0.0489
 5770SOL     OW18750   4.731   0.534   7.766  0.2989  0.1739  0.3750
 5770SOL    HW118751   4.826   0.547   7.777  0.4331 -0.8887  0.5509
 5770SOL    HW218752   4.723   0.500   7.677  0.3537 -2.1955  1.2302
 5771SOL     OW18753   4.775   0.110   2.196  0.2301  0.1421  0.5396
 5771SOL    HW118754   4.712   0.037   2.193  0.7148 -0.2577 -2.1267
 5771SOL    HW218755   4.858   0.069   2.220 -0.0936  0.3823  2.2082
 5772SOL     OW18756   2.161   7.487   2.342 -0.2361  0.7188  0.2475
 5772SOL    HW118757   2.172   7.580   2.323  1.9668  0.5137  0.3096
 5772SOL    HW218758   2.197   7.442   2.265 -0.5179 -0.0989  0.5777
 5773SOL     OW18759   1.212   6.846   1.520  0.4138 -0.1859 -0.3084
 5773SOL    HW118760   1.241   6.909   1.454 -0.3547 -0.1149 -0.5951
 5773SOL    HW218761   1.227   6.890   1.604 -0.0992  0.3852 -0.5031
 5774SOL     OW18762   7.528   4.823   0.718 -0.0511 -0.3138 -0.2889
 5774SOL    HW118763   7.562   4.743   0.679  1.0694  0.2056 -0.4222
 5774SOL    HW218764   7.599   4.887   0.708 -0.5663  0.4370  0.6354
 5775SOL     OW18765   7.313   2.617   4.385  0.4068 -0.4698 -0.3016
 5775SOL    HW118766   7.292   2.524   4.397 -1.9239  0.2214  1.8593
 5775SOL    HW218767   7.317   2.652   4.474  3.0171  1.2286 -0.9886
 5776SOL     OW18768   6.293   1.685   3.027 -0.3157 -0.1670 -0.6928
 5776SOL    HW118769   6.231   1.754   3.005 -0.9860 -0.8986 -1.1322
 5776SOL    HW218770   6.239   1.606   3.035  0.3034 -0.4849  0.6796
 5777SOL     OW18771   6.506   4.804   4.916  0.1116  0.3961 -0.2293
 5777SOL    HW118772   6.477   4.780   4.828  0.3688 -0.4871 -0.0841
 5777SOL    HW218773   6.537   4.722   4.954 -0.7678  0.6155  0.9923
 5778SOL     OW18774   6.465   0.353   6.581  0.4548  0.2152 -0.2081
 5778SOL    HW118775   6.430   0.425   6.632  1.6694 -0.4652  1.6864
 5778SOL    HW218776   6.487   0.285   6.645  0.9391 -1.1687 -1.7430
 5779SOL     OW18777   7.911   1.373   4.535 -0.1235  0.2276  0.6092
 5779SOL    HW118778   7.990   1.413   4.499  1.9543 -1.6448  2.7116
 5779SOL    HW218779   7.878   1.437   4.598  0.4567  0.5041  0.6398
 5780SOL     OW18780   6.703   7.049   1.662 -0.1317 -0.4550  0.2804
 5780SOL    HW118781   6.626   7.061   1.607 -0.2091 -1.5688  0.1399
 5780SOL    HW218782   6.776   7.081   1.608 -0.3616 -0.3777  0.0119
 5781SOL     OW18783   1.242   3.804  11.442 -0.2308  0.3177  0.0246
 5781SOL    HW118784   1.269   3.718  11.409 -0.9487  0.2330 -0.3480
 5781SOL    HW218785   1.151   3.813  11.415 -0.8863  0.2079  2.0299
 5782SOL     OW18786   5.238   4.511   2.455 -0.3687 -0.0546  0.1506
 5782SOL    HW118787   5.188   4.564   2.518  1.6713 -0.6167  2.3990
 5782SOL    HW218788   5.188   4.430   2.448 -0.5125 -0.0937  1.3152
 5783SOL     OW18789   0.222   7.339   2.933 -0.3132 -1.1130  0.6945
 5783SOL    HW118790   0.215   7.243   2.929  0.6320 -1.3638  3.3530
 5783SOL    HW218791   0.132   7.369   2.947 -0.5144 -1.6803  0.6451
 5784SOL     OW18792   6.416   0.001  11.292  0.0055 -0.1089 -0.2283
 5784SOL    HW118793   6.383  -0.089  11.287 -0.9837  0.2407 -0.3426
 5784SOL    HW218794   6.384   0.033  11.376  0.6714  0.0242 -0.0212
 5785SOL     OW18795   7.860   4.795   2.180 -0.0030 -0.0388 -0.0701
 5785SOL    HW118796   7.817   4.880   2.188  1.1161  0.5832 -0.3760
 5785SOL    HW218797   7.799   4.732   2.219 -0.7554  0.9317  0.3363
 5786SOL     OW18798   5.354   0.212   4.006 -0.3765  0.0112  0.3979
 5786SOL    HW118799   5.265   0.195   4.036 -0.5231 -2.3133 -1.0416
 5786SOL    HW218800   5.383   0.128   3.968  1.1199  1.6087 -2.3522
 5787SOL     OW18801   2.694   6.368   8.281 -0.2518 -0.0885  0.0145
 5787SOL    HW118802   2.668   6.432   8.216 -0.0124  0.2910  0.2852
 5787SOL    HW218803   2.646   6.393   8.360 -0.9667 -0.8765 -0.1598
 5788SOL     OW18804   5.217   4.726   9.627  0.1635 -0.1158 -0.3058
 5788SOL    HW118805   5.137   4.747   9.675 -0.3613 -1.2065 -0.6604
 5788SOL    HW218806   5.223   4.631   9.632  2.0760  0.0013  0.6904
 5789SOL     OW18807   6.909   3.693  10.048 -0.5271  0.1995 -0.1197
 5789SOL    HW118808   6.822   3.675  10.013  0.6062 -2.7926 -1.8338
 5789SOL    HW218809   6.957   3.733   9.976  0.4406 -1.4043 -0.4205
 5790SOL     OW18810   7.005   5.215  11.794  0.0008 -0.0047  0.0058
 5790SOL    HW118811   7.033   5.186  11.880  0.6931  0.2215 -0.1366
 5790SOL    HW218812   7.019   5.310  11.795 -1.9264  0.3264  0.3532
 5791SOL     OW18813   2.189   3.528   1.217  0.1096 -0.2561  0.6569
 5791SOL    HW118814   2.150   3.495   1.136 -1.1578  2.2624  0.1375
 5791SOL    HW218815   2.282   3.506   1.210 -0.2740 -1.6020 -0.6453
 5792SOL     OW18816   7.696   7.434   5.955 -0.1951  0.8926 -0.1668
 5792SOL    HW118817   7.736   7.365   5.901  0.1455  0.8003  0.1977
 5792SOL    HW218818   7.745   7.431   6.038 -2.5477 -0.9122  1.2914
 5793SOL     OW18819   3.857   1.716   6.193 -0.0232  0.4059  0.2878
 5793SOL    HW118820   3.830   1.746   6.280 -0.7579 -0.3492  0.3363
 5793SOL    HW218821   3.898   1.630   6.208  0.0921  0.3931 -0.0814
 5794SOL     OW18822   0.872   4.299   5.096  0.0338  0.3693 -0.4634
 5794SOL    HW118823   0.833   4.384   5.117 -0.2144  0.3240 -0.7348
 5794SOL    HW218824   0.926   4.316   5.018  0.3626  0.3781 -0.2362
 5795SOL     OW18825   7.708   0.116  11.095  0.1448 -0.6125 -0.3333
 5795SOL    HW118826   7.771   0.123  11.167 -0.3514 -0.7416  0.1267
 5795SOL    HW218827   7.628   0.156  11.129  0.0185 -0.3244 -0.9565
 5796SOL     OW18828   4.624   6.562   8.585  0.2664  0.1177  0.5951
 5796SOL    HW118829   4.608   6.571   8.491 -0.3138  0.5875  0.7295
 5796SOL    HW218830   4.718   6.544   8.592  0.2391 -0.3456 -0.0948
 5797SOL     OW18831   1.205   1.457   8.453 -0.7180  0.1725  0.8219
 5797SOL    HW118832   1.291   1.438   8.416 -1.4291  1.7776 -1.9229
 5797SOL    HW218833   1.223   1.522   8.522  0.2683  0.7177  0.0806
 5798SOL     OW18834   6.297   6.247   7.193  0.2961 -0.3518  0.3033
 5798SOL    HW118835   6.328   6.301   7.266 -0.7818  0.2259  0.3509
 5798SOL    HW218836   6.259   6.170   7.235 -0.2816 -0.0414  0.3641
 5799SOL     OW18837   4.591   6.858  10.810 -0.7324 -0.2211 -0.5041
 5799SOL    HW118838   4.674   6.828  10.848 -0.4478  0.2010 -0.7744
 5799SOL    HW218839   4.541   6.778  10.795  0.2395 -0.6254 -1.7664
 5800SOL     OW18840   0.850   0.681   0.668 -0.3265  0.4340  0.2393
 5800SOL    HW118841   0.790   0.755   0.681  0.5470  1.4016 -0.9716
 5800SOL    HW218842   0.802   0.620   0.613 -0.1025  1.4033 -1.0924
 5801SOL     OW18843   1.814   2.820   7.799  0.0131 -0.0010 -0.4386
 5801SOL    HW118844   1.891   2.820   7.855 -1.0755 -0.1754  1.1449
 5801SOL    HW218845   1.801   2.911   7.774 -0.1768  0.2813  0.6402
 5802SOL     OW18846   1.773   1.397   1.866 -0.3661  0.1588  0.3958
 5802SOL    HW118847   1.829   1.460   1.912  0.9516 -0.0079 -0.9155
 5802SOL    HW218848   1.823   1.372   1.789 -2.0147 -0.4738 -0.5207
 5803SOL     OW18849   5.834   2.612   8.994  0.5268 -0.1319 -0.2535
 5803SOL    HW118850   5.851   2.689   8.939 -2.4473  1.3191  0.6305
 5803SOL    HW218851   5.769   2.562   8.944 -0.1676 -0.1967  0.6887
 5804SOL     OW18852   2.273   4.065   0.011  0.3698  0.2269 -0.4813
 5804SOL    HW118853   2.257   3.982  -0.034  0.7589 -0.6777  0.9777
 5804SOL    HW218854   2.367   4.081  -0.001  0.1595  0.8627 -1.3884
 5805SOL     OW18855   7.629   2.342   0.253 -0.2356  0.0238  0.1709
 5805SOL    HW118856   7.556   2.282   0.270 -0.2254 -0.0167  0.0758
 5805SOL    HW218857   7.684   2.336   0.332 -0.8845  0.8665  0.6974
 5806SOL     OW18858   0.080   6.548   6.757 -0.6114 -0.8491 -0.1757
 5806SOL    HW118859   0.173   6.571   6.758 -0.3600 -1.7820 -0.5569
 5806SOL    HW218860   0.066   6.504   6.841 -1.3444  1.5325  1.0356
 5807SOL     OW18861   1.012   5.151   7.206 -0.5235 -0.6665 -0.4037
 5807SOL    HW118862   0.940   5.200   7.247 -1.8870 -2.3376 -0.6992
 5807SOL    HW218863   1.072   5.219   7.175 -1.7837  0.7762  0.1664
 5808SOL     OW18864   6.005   2.448   3.912 -0.8706 -0.3293  0.0810
 5808SOL    HW118865   5.970   2.372   3.866 -0.2883 -0.9938  0.7145
 5808SOL    HW218866   6.041   2.504   3.843  0.1575 -1.3938 -0.2765
 5809SOL     OW18867   5.340   2.157  10.361  0.4675  0.4790  0.3566
 5809SOL    HW118868   5.270   2.219  10.381  0.7991  1.2723 -0.8464
 5809SOL    HW218869   5.333   2.144  10.266  1.3228 -0.2049  0.3793
 5810SOL     OW18870   2.881   2.741   4.720  0.0029  0.2322 -0.9562
 5810SOL    HW118871   2.804   2.714   4.671  0.2789  0.1870 -1.3721
 5810SOL    HW218872   2.954   2.725   4.660  0.3896 -0.2647 -0.3510
 5811SOL     OW18873   4.343   2.468  11.766 -0.1857 -0.1557 -0.0493
 5811SOL    HW118874   4.342   2.479  11.671 -2.2949 -1.3083 -0.2298
 5811SOL    HW218875   4.251   2.456  11.789  0.5343 -3.5661  1.6347
 5812SOL     OW18876   5.253   3.670   6.658  0.3113  0.2541 -0.0581
 5812SOL    HW118877   5.301   3.626   6.728 -1.4143  1.7670  2.2327
 5812SOL    HW218878   5.240   3.760   6.690 -0.3683  1.0974 -2.4449
 5813SOL     OW18879   1.428   7.115  10.723  0.6917  0.2233  0.7326
 5813SOL    HW118880   1.482   7.182  10.768 -0.6756  1.9921 -0.1340
 5813SOL    HW218881   1.338   7.145  10.735 -0.1147 -2.2787  1.5076
 5814SOL     OW18882   7.618   0.660   6.515  0.1751 -0.1447  0.0938
 5814SOL    HW118883   7.620   0.637   6.607 -1.4822  2.7648  0.9847
 5814SOL    HW218884   7.710   0.674   6.492  0.5816 -0.5660  1.3867
 5815SOL     OW18885   6.198   4.984  10.297  0.2049  0.4779  0.0682
 5815SOL    HW118886   6.256   4.919  10.259 -1.5187 -0.3011 -1.3476
 5815SOL    HW218887   6.162   5.032  10.222 -1.6254  0.3392  0.7905
 5816SOL     OW18888   1.412   3.195  12.081 -0.9275 -0.3762  0.3086
 5816SOL    HW118889   1.390   3.256  12.010  0.8847 -0.2198 -0.1497
 5816SOL    HW218890   1.506   3.204  12.094 -0.4068 -3.5635 -0.2652
 5817SOL     OW18891   3.531   2.808  10.778  0.6473 -0.0667  0.0397
 5817SOL    HW118892   3.438   2.833  10.775  0.4814 -0.3483  1.7207
 5817SOL    HW218893   3.577   2.882  10.739 -0.2608  0.2545 -0.4473
 5818SOL     OW18894   4.845   4.813   6.078 -1.2369 -0.5114  0.0125
 5818SOL    HW118895   4.874   4.757   6.151 -1.2566  0.2008  0.5852
 5818SOL    HW218896   4.922   4.867   6.058 -0.9427 -1.3181 -1.1135
 5819SOL     OW18897   0.926   4.941   5.928  0.8315 -0.7243  0.1847
 5819SOL    HW118898   1.012   4.904   5.911  0.4688 -0.8049 -1.6977
 5819SOL    HW218899   0.865   4.872   5.904  0.2205  0.0151 -0.4606
 5820SOL     OW18900   5.208   1.823   6.540 -0.0040 -0.1860  0.0474
 5820SOL    HW118901   5.234   1.915   6.542 -0.4397 -0.0246 -1.1309
 5820SOL    HW218902   5.121   1.822   6.499 -0.1959 -1.0767  0.4421
 5821SOL     OW18903   2.359   5.132   7.852  0.3718  0.0383  0.2289
 5821SOL    HW118904   2.314   5.131   7.767  0.6911  1.7255  0.0202
 5821SOL    HW218905   2.298   5.089   7.912  0.2214 -1.3520 -0.8727
 5822SOL     OW18906   2.260   2.262   5.362 -0.0975 -0.2862  0.0064
 5822SOL    HW118907   2.193   2.331   5.357 -1.2967 -1.4052  0.1054
 5822SOL    HW218908   2.271   2.233   5.271  0.5721  0.1715 -0.0660
 5823SOL     OW18909   7.740   2.272   0.865  0.3213  0.0952  0.0746
 5823SOL    HW118910   7.784   2.357   0.857  0.5764 -0.0794 -0.4717
 5823SOL    HW218911   7.774   2.221   0.791 -2.0261  0.4902 -1.3845
 5824SOL     OW18912   0.510   7.930   2.180 -0.4987  0.7422 -0.9884
 5824SOL    HW118913   0.549   7.902   2.263 -3.1605  0.2655  0.2134
 5824SOL    HW218914   0.555   8.011   2.158  1.1056  0.2465  0.2795
 5825SOL     OW18915   7.371   1.797   2.369 -0.0471 -0.4033  0.0116
 5825SOL    HW118916   7.442   1.754   2.418 -0.5300  0.4326  1.5053
 5825SOL    HW218917   7.407   1.882   2.345  0.9272 -1.5331 -2.9945
 5826SOL     OW18918   3.174   3.266  11.955 -0.1145 -0.1258  0.4031
 5826SOL    HW118919   3.226   3.345  11.942 -0.2328 -0.0447  0.4222
 5826SOL    HW218920   3.223   3.216  12.021  0.1669 -0.2548  0.0979
 5827SOL     OW18921   2.572   5.514   6.329 -0.1345 -0.4102 -0.4521
 5827SOL    HW118922   2.592   5.462   6.251 -1.0328 -0.1506 -0.8747
 5827SOL    HW218923   2.600   5.459   6.402 -0.2748 -1.1329 -0.9202
 5828SOL     OW18924   4.239   5.231   6.615 -0.7265 -0.1285 -0.1876
 5828SOL    HW118925   4.158   5.201   6.657 -1.1059  0.7047 -0.3148
 5828SOL    HW218926   4.298   5.155   6.621 -1.3714 -0.6088  0.2667
 5829SOL     OW18927   3.661   7.110   4.757 -0.3177 -0.1007 -0.3485
 5829SOL    HW118928   3.660   7.168   4.680 -0.7320 -1.5115 -1.4513
 5829SOL    HW218929   3.726   7.149   4.815  1.2184  0.1513 -2.1237
 5830SOL     OW18930   1.760   0.139   1.389 -0.4601  0.4262 -0.4061
 5830SOL    HW118931   1.697   0.079   1.428 -0.7888  0.7993 -0.3612
 5830SOL    HW218932   1.845   0.108   1.421 -0.4339 -1.1620 -1.8706
 5831SOL     OW18933   2.807   0.219  10.679  0.2467  0.1292 -0.2359
 5831SOL    HW118934   2.744   0.157  10.643  0.6053  0.9427 -2.4128
 5831SOL    HW218935   2.851   0.171  10.749  0.7467 -2.2135 -2.0505
 5832SOL     OW18936   5.303   2.512   2.649 -0.0745 -0.1670 -0.5246
 5832SOL    HW118937   5.295   2.486   2.741 -0.6025 -1.0408 -0.8058
 5832SOL    HW218938   5.367   2.583   2.650  0.8533 -0.9696  0.3754
 5833SOL     OW18939   5.257   4.033   6.423 -0.1711 -0.5308  0.3653
 5833SOL    HW118940   5.330   4.002   6.476 -0.2515 -0.0660  0.7563
 5833SOL    HW218941   5.270   4.127   6.417 -2.2348  0.0123  2.8268
 5834SOL     OW18942   1.848   5.892   0.377  0.4901 -0.0008 -0.5356
 5834SOL    HW118943   1.896   5.809   0.380  2.0821  0.8790  0.2840
 5834SOL    HW218944   1.878   5.939   0.455 -1.0974  0.9750 -0.4656
 5835SOL     OW18945   6.763   7.117  11.007  0.0664 -0.1918  0.6552
 5835SOL    HW118946   6.806   7.055  11.066  1.1776  0.4293  0.5054
 5835SOL    HW218947   6.680   7.137  11.050  0.0671 -1.1456  1.1086
 5836SOL     OW18948   1.387   6.737   0.063  0.2286 -0.5002 -0.5061
 5836SOL    HW118949   1.443   6.694   0.129 -0.5992 -2.8586 -1.2213
 5836SOL    HW218950   1.441   6.808   0.028  1.5787 -0.7130  1.0131
 5837SOL     OW18951   5.923   7.706   2.596 -0.8305 -0.1492 -0.7288
 5837SOL    HW118952   5.928   7.795   2.560  0.8206 -0.6533 -1.8454
 5837SOL    HW218953   5.832   7.697   2.624 -0.7709  2.2954  0.5110
 5838SOL     OW18954   1.609   2.437   7.117  0.2963 -0.0297  0.8681
 5838SOL    HW118955   1.612   2.506   7.051  1.2317  1.6769  2.6281
 5838SOL    HW218956   1.563   2.475   7.191  0.8771 -1.2755  1.9167
 5839SOL     OW18957   4.380   3.342   5.294  0.0355  0.6471 -0.1336
 5839SOL    HW118958   4.310   3.406   5.308 -0.2514  0.7235 -1.7150
 5839SOL    HW218959   4.345   3.260   5.329 -0.7164  0.7590 -0.6108
 5840SOL     OW18960   6.067   6.708   3.447 -0.0275  0.2367  0.0356
 5840SOL    HW118961   6.115   6.785   3.418  0.2987 -0.1388 -0.4310
 5840SOL    HW218962   5.992   6.703   3.387 -1.3646  1.5087  1.4831
 5841SOL     OW18963   5.696   5.345   8.915  0.3940 -0.0099 -0.8082
 5841SOL    HW118964   5.677   5.426   8.868  1.2471 -0.6437 -2.3044
 5841SOL    HW218965   5.787   5.327   8.895 -0.1905 -2.1501 -1.7981
 5842SOL     OW18966   5.594   6.988   1.382 -0.3794 -0.5520 -0.0700
 5842SOL    HW118967   5.611   7.051   1.452  1.7534 -0.1016 -0.9019
 5842SOL    HW218968   5.511   7.016   1.344 -0.4422  0.5651  0.8344
 5843SOL     OW18969   6.997   5.955   9.230  0.5689 -0.3501  0.0671
 5843SOL    HW118970   7.078   6.005   9.235 -0.0485  1.0117 -2.2377
 5843SOL    HW218971   6.937   6.010   9.180 -1.3974 -1.8548  0.6074
 5844SOL     OW18972   2.672   1.472  11.730 -0.4519 -0.1151  0.0480
 5844SOL    HW118973   2.640   1.504  11.815 -0.3337 -2.2754  0.9548
 5844SOL    HW218974   2.766   1.487  11.733 -0.4884  0.1023  0.1646
 5845SOL     OW18975   6.072   1.584   2.896  0.0532 -0.0256 -0.7795
 5845SOL    HW118976   6.146   1.558   2.841  1.0901  0.4723  0.3563
 5845SOL    HW218977   5.995   1.555   2.846  1.0215 -1.7783 -1.3470
 5846SOL     OW18978   7.575   3.426  11.274  0.4038  0.0067  0.1879
 5846SOL    HW118979   7.556   3.517  11.296  2.6563  0.3150  1.2012
 5846SOL    HW218980   7.561   3.378  11.356  0.5808 -0.3191  0.0315
 5847SOL     OW18981   2.318   2.193   0.785 -0.0595  0.4710  0.1067
 5847SOL    HW118982   2.411   2.175   0.770 -0.3937  0.5461 -2.4279
 5847SOL    HW218983   2.301   2.159   0.873  1.9484 -1.1964 -0.0728
 5848SOL     OW18984   4.108   6.894   0.519  0.4622 -0.0435  0.1133
 5848SOL    HW118985   4.089   6.809   0.558  0.0344 -0.0077 -0.0192
 5848SOL    HW218986   4.041   6.906   0.452  0.5234  0.3959  0.1254
 5849SOL     OW18987   5.529   0.136   6.029  0.3574 -0.2187 -0.0331
 5849SOL    HW118988   5.449   0.137   5.977  1.1189 -2.2933 -1.4084
 5849SOL    HW218989   5.564   0.047   6.017  2.3287  0.2918  1.3531
 5850SOL     OW18990   6.666   6.798   9.952  0.6465  0.1635 -0.3482
 5850SOL    HW118991   6.732   6.848   9.904  0.9061 -0.1840 -0.3613
 5850SOL    HW218992   6.675   6.827  10.043  1.0154 -0.0873 -0.3017
 5851SOL     OW18993   7.367   5.352   5.369  0.0512  0.0993  0.7816
 5851SOL    HW118994   7.330   5.303   5.295  3.7489 -0.3821 -0.9343
 5851SOL    HW218995   7.349   5.443   5.349  0.6897 -0.0509 -0.5438
 5852SOL     OW18996   1.056   3.059   6.830  0.0110  0.0062  0.6998
 5852SOL    HW118997   1.113   2.983   6.823  0.7174  0.4274  1.6271
 5852SOL    HW218998   0.999   3.039   6.905 -0.1079  0.2001  0.6623
 5853SOL     OW18999   6.550   0.221   5.952 -0.2728 -0.2622  0.7637
 5853SOL    HW119000   6.645   0.226   5.961 -0.0905 -1.5878 -0.0354
 5853SOL    HW219001   6.522   0.165   6.025 -0.4453  0.1696  1.0290
 5854SOL     OW19002   5.942   7.048   8.770  0.2586 -0.2138 -0.0179
 5854SOL    HW119003   5.990   7.116   8.818 -0.4722  0.2975 -0.0032
 5854SOL    HW219004   5.914   6.986   8.838 -3.9278  2.3361  0.8883
 5855SOL     OW19005   5.753   0.904   9.169  0.3466  0.3609  0.1532
 5855SOL    HW119006   5.698   0.973   9.204  1.3311  1.5302 -0.5177
 5855SOL    HW219007   5.838   0.916   9.212  0.6487 -0.1562 -0.2825
 5856SOL     OW19008   5.904   6.632   6.629 -0.3483 -0.0421 -0.1950
 5856SOL    HW119009   5.952   6.612   6.548  0.1714  1.2137 -0.2365
 5856SOL    HW219010   5.854   6.711   6.608  0.4440  0.8107  0.9170
 5857SOL     OW19011   1.407   5.592   9.198  0.1320  0.3589  0.0918
 5857SOL    HW119012   1.413   5.499   9.223  1.4905 -0.0101 -1.4077
 5857SOL    HW219013   1.329   5.597   9.144  0.7884 -0.2333 -0.9467
 5858SOL     OW19014   2.622   7.626  11.250 -0.1408  0.8159 -0.2284
 5858SOL    HW119015   2.566   7.690  11.292 -0.5777 -0.0228  0.5098
 5858SOL    HW219016   2.701   7.674  11.226  0.4044  1.2289  2.1470
 5859SOL     OW19017   5.890   3.553   4.685  0.1504 -0.2743 -0.0971
 5859SOL    HW119018   5.913   3.500   4.609  2.4909  1.6804 -0.8445
 5859SOL    HW219019   5.827   3.616   4.651 -0.1314 -0.4891  0.0203
 5860SOL     OW19020   7.625   5.305   4.261 -0.0082 -0.0867 -0.3808
 5860SOL    HW119021   7.667   5.391   4.257 -0.5147  0.1348 -1.6219
 5860SOL    HW219022   7.544   5.319   4.310 -0.2903  0.2621 -0.9249
 5861SOL     OW19023   1.541   2.842  10.436 -0.3913 -0.0073  0.9819
 5861SOL    HW119024   1.583   2.834  10.350  1.5683 -1.7087  2.0027
 5861SOL    HW219025   1.505   2.930  10.437  3.3032  1.7132  0.0046
 5862SOL     OW19026   7.375   4.936  10.849 -0.4579  0.4692  0.2297
 5862SOL    HW119027   7.329   5.017  10.871 -0.5381  1.1100 -2.0499
 5862SOL    HW219028   7.321   4.895  10.782  1.8789  0.9184 -2.0581
 5863SOL     OW19029   5.166   1.755   2.764 -0.2075  0.7638  0.1483
 5863SOL    HW119030   5.106   1.707   2.707  1.1238  0.0138 -0.6755
 5863SOL    HW219031   5.113   1.779   2.841 -1.1942 -1.0580  0.0765
 5864SOL     OW19032   0.479   6.930   2.917 -0.3995  0.4351  0.6701
 5864SOL    HW119033   0.434   6.849   2.941 -1.4955  1.0524  0.7672
 5864SOL    HW219034   0.456   6.991   2.986  0.8946  0.6809  0.9024
 5865SOL     OW19035   6.852   5.343   6.076  0.0181  0.2347 -0.1723
 5865SOL    HW119036   6.883   5.348   6.167 -0.3092 -0.5779 -0.0031
 5865SOL    HW219037   6.872   5.428   6.039 -0.2614  0.7429  0.8052
 5866SOL     OW19038   1.818   2.999  11.312  0.1657  0.1576 -0.4553
 5866SOL    HW119039   1.838   2.909  11.337  0.5753  0.3764  0.0264
 5866SOL    HW219040   1.731   2.994  11.272  0.1989 -0.4531 -0.4590
 5867SOL     OW19041   5.144   5.750   9.154  0.5497 -0.4342  0.1927
 5867SOL    HW119042   5.173   5.729   9.065  0.3234  4.8061 -1.4652
 5867SOL    HW219043   5.224   5.771   9.202  0.7856 -4.2160  1.8220
 5868SOL     OW19044   0.912   5.076   4.871  0.1594  0.5802 -0.6583
 5868SOL    HW119045   0.906   5.068   4.776 -0.9643 -0.7645 -0.5068
 5868SOL    HW219046   0.935   4.987   4.901 -1.4549  0.4814  0.4352
 5869SOL     OW19047   5.970   4.685   0.172  0.6963  0.1034 -0.3698
 5869SOL    HW119048   5.949   4.767   0.217  0.2556 -0.1121 -0.1842
 5869SOL    HW219049   6.048   4.652   0.218  0.3560 -0.0230  0.1173
 5870SOL     OW19050   5.380   5.319   3.193 -0.3516  0.1949 -0.1841
 5870SOL    HW119051   5.421   5.381   3.253 -1.1209  0.0852  0.4771
 5870SOL    HW219052   5.421   5.235   3.213  1.0237  0.5350 -1.3968
 5871SOL     OW19053   4.046   5.173   8.052  0.6239 -0.0228  0.1041
 5871SOL    HW119054   4.113   5.240   8.037  1.1288 -0.3082  0.9973
 5871SOL    HW219055   4.066   5.104   7.988  2.2281 -0.8512  1.4267
 5872SOL     OW19056   4.694   5.130   3.556  0.2941  0.1952  0.1849
 5872SOL    HW119057   4.776   5.127   3.607  0.5585 -0.9693 -0.2850
 5872SOL    HW219058   4.717   5.090   3.472 -0.7939 -0.2609  0.0982
 5873SOL     OW19059   0.774   0.964  11.126 -0.3701 -0.5429 -0.7441
 5873SOL    HW119060   0.735   0.959  11.214  0.0295 -3.0838 -0.6357
 5873SOL    HW219061   0.849   1.023  11.136 -1.0251  0.1445  0.3179
 5874SOL     OW19062   5.268   6.878   1.764  0.4367  0.6161  0.2538
 5874SOL    HW119063   5.185   6.846   1.730  1.3384 -1.0554 -0.4789
 5874SOL    HW219064   5.256   6.973   1.770 -2.1699  0.2936  2.0027
 5875SOL     OW19065   5.130   7.486   1.660  0.3947 -0.0321  0.4081
 5875SOL    HW119066   5.041   7.469   1.630  0.4699  1.0004 -0.5124
 5875SOL    HW219067   5.125   7.486   1.755 -0.2119 -1.7586  0.4039
 5876SOL     OW19068   2.820   0.053   5.887 -0.0687  0.8160 -0.1567
 5876SOL    HW119069   2.762  -0.019   5.912  0.4466  0.5291  0.2308
 5876SOL    HW219070   2.893   0.011   5.843 -0.1152  1.1712 -0.5784
 5877SOL     OW19071   1.026   1.800  11.034  0.0542 -0.1891  0.1689
 5877SOL    HW119072   0.978   1.724  11.000 -0.9672  0.5980 -0.1882
 5877SOL    HW219073   0.960   1.867  11.046  0.8113  0.3887  1.2992
 5878SOL     OW19074   5.839   3.588   0.017 -0.0811  0.3135  0.1055
 5878SOL    HW119075   5.789   3.615  -0.061  0.2486  0.3146 -0.1055
 5878SOL    HW219076   5.916   3.644   0.016  2.1641 -2.5081 -2.0033
 5879SOL     OW19077   3.820   5.997   4.947 -0.3915  0.5067  0.2275
 5879SOL    HW119078   3.753   5.930   4.932 -1.4559  1.4462  0.6107
 5879SOL    HW219079   3.889   5.953   4.996 -0.4664 -0.6271 -0.6662
 5880SOL     OW19080   6.363   5.519   4.137 -0.2874 -0.2070  0.4187
 5880SOL    HW119081   6.274   5.508   4.103 -0.5277  0.3305  0.8648
 5880SOL    HW219082   6.351   5.564   4.220  0.3415 -0.9322  0.9187
 5881SOL     OW19083   3.242   3.205   1.896  0.0562 -0.1660  0.3337
 5881SOL    HW119084   3.211   3.185   1.808 -0.2517  0.1592  0.3663
 5881SOL    HW219085   3.338   3.199   1.890  0.1420  1.4160 -0.4255
 5882SOL     OW19086   4.438   7.930   0.208 -0.1072 -0.4776 -0.2625
 5882SOL    HW119087   4.400   7.843   0.220 -0.0826 -0.4092  0.3609
 5882SOL    HW219088   4.506   7.918   0.142  0.0786 -0.9916  0.0111
 5883SOL     OW19089   5.731   1.955   5.801 -0.4132  0.0263 -0.1283
 5883SOL    HW119090   5.732   1.934   5.894 -2.0063 -2.5306 -0.6124
 5883SOL    HW219091   5.810   1.912   5.766  1.3354  2.6730  0.2463
 5884SOL     OW19092   7.091   4.338   0.269 -0.1607  0.0670 -0.1763
 5884SOL    HW119093   7.110   4.365   0.179  1.1414  1.0509  0.3558
 5884SOL    HW219094   7.000   4.366   0.284 -0.0438  0.8328 -0.8474
 5885SOL     OW19095   5.847   0.455   0.690  0.4976  0.6747 -0.2843
 5885SOL    HW119096   5.896   0.480   0.768  0.3415  1.0483 -0.3038
 5885SOL    HW219097   5.852   0.359   0.688 -0.6386  0.5692  0.9198
 5886SOL     OW19098   0.512   0.284   9.116 -0.1364 -0.1829 -0.3522
 5886SOL    HW119099   0.494   0.330   9.034 -2.6080  1.0157  0.7638
 5886SOL    HW219100   0.605   0.260   9.110 -0.5946 -1.6163 -4.1574
 5887SOL     OW19101   1.122   0.880   6.721  0.3166  0.0894  0.2250
 5887SOL    HW119102   1.175   0.927   6.657 -0.7745 -0.2117 -0.9296
 5887SOL    HW219103   1.157   0.908   6.806  1.4412  0.8982 -0.4777
 5888SOL     OW19104   3.461   5.266  10.149  0.0115  0.0442 -0.0898
 5888SOL    HW119105   3.434   5.303  10.233 -0.1763 -0.1247 -0.0741
 5888SOL    HW219106   3.528   5.325  10.116  0.3907 -0.1202  0.3820
 5889SOL     OW19107   2.378   6.667  12.282 -0.0711  0.0189 -0.3797
 5889SOL    HW119108   2.300   6.718  12.303 -0.4665 -0.4290 -0.7451
 5889SOL    HW219109   2.416   6.645  12.368  1.1007  2.4011 -0.2079
 5890SOL     OW19110   3.694   3.467   4.211 -0.0523  0.0181 -0.6049
 5890SOL    HW119111   3.626   3.410   4.175 -2.1710  0.9518  1.5719
 5890SOL    HW219112   3.755   3.408   4.255 -0.1363 -0.7702 -1.5221
 5891SOL     OW19113   7.052   6.282   3.300  0.7421  0.1244 -0.4173
 5891SOL    HW119114   6.968   6.259   3.262 -0.6817  2.4201  1.1265
 5891SOL    HW219115   7.072   6.209   3.360 -1.2720  0.5293  0.8249
 5892SOL     OW19116   0.102   2.405   8.336  0.1240  0.3456 -0.1441
 5892SOL    HW119117   0.023   2.366   8.374 -0.0216 -1.1289 -1.8047
 5892SOL    HW219118   0.074   2.491   8.305 -0.5300  0.2999  0.2960
 5893SOL     OW19119   6.579   0.913   0.480 -0.4478 -0.4742  0.4802
 5893SOL    HW119120   6.520   0.842   0.453 -0.3313 -0.7210  0.8546
 5893SOL    HW219121   6.644   0.869   0.535  0.4722 -0.3145 -0.4601
 5894SOL     OW19122   2.260   4.446   9.607  0.4703  0.3562  0.3457
 5894SOL    HW119123   2.243   4.537   9.582 -1.1352 -0.3733 -1.4505
 5894SOL    HW219124   2.191   4.396   9.564  2.1258 -1.8790  0.1292
 5895SOL     OW19125   3.320   4.264  10.782  0.5225 -0.1845  0.4103
 5895SOL    HW119126   3.244   4.270  10.724  0.2107 -3.1542  0.3250
 5895SOL    HW219127   3.288   4.294  10.867 -0.0258  0.8676 -0.1536
 5896SOL     OW19128   4.952   0.812   8.895  0.2847 -0.4094  0.7420
 5896SOL    HW119129   5.038   0.777   8.915  0.9815  0.9144  0.2089
 5896SOL    HW219130   4.948   0.814   8.800 -0.6496 -1.1771  0.7563
 5897SOL     OW19131   3.185   6.263   6.350 -0.3056  0.2973  0.0838
 5897SOL    HW119132   3.179   6.340   6.294  0.9262  1.4586  1.4633
 5897SOL    HW219133   3.261   6.215   6.318  0.3957  0.9581  0.7168
 5898SOL     OW19134   4.650   2.254   0.011 -0.2473 -0.7851 -0.1591
 5898SOL    HW119135   4.581   2.319  -0.004  0.0129 -0.0692  1.5194
 5898SOL    HW219136   4.639   2.228   0.103  3.2957  1.3315  1.0497
 5899SOL     OW19137   2.796   4.862   6.874 -0.0120  0.2732 -0.4034
 5899SOL    HW119138   2.874   4.821   6.837 -1.3867 -1.0693 -2.0038
 5899SOL    HW219139   2.758   4.910   6.801 -2.4637 -1.9004 -0.7002
 5900SOL     OW19140   2.493   2.095   4.762 -0.9033  0.4058  0.1753
 5900SOL    HW119141   2.504   2.007   4.798  0.0908  0.7483  0.7617
 5900SOL    HW219142   2.563   2.146   4.802  0.3293  0.8205 -2.2981
 5901SOL     OW19143   3.536   2.570   5.679 -0.1757 -0.5815  0.1982
 5901SOL    HW119144   3.609   2.552   5.620 -0.2616 -0.8308  0.1687
 5901SOL    HW219145   3.523   2.489   5.727  1.4785  0.3079  2.3207
 5902SOL     OW19146   2.279   4.745   5.234  0.4387 -0.2675  0.1402
 5902SOL    HW119147   2.276   4.765   5.327 -0.3331 -1.2330  0.3352
 5902SOL    HW219148   2.290   4.650   5.229  2.7979 -0.0106 -0.7691
 5903SOL     OW19149   6.420   0.034   4.485  0.4366  0.3800  0.0617
 5903SOL    HW119150   6.428   0.006   4.394  0.2482  2.1380 -0.5337
 5903SOL    HW219151   6.327   0.023   4.505 -0.3532  3.4714 -1.2559
 5904SOL     OW19152   1.968   2.462  10.610  0.1568  0.1411  0.1652
 5904SOL    HW119153   2.018   2.383  10.632 -2.2644 -1.1624  1.3528
 5904SOL    HW219154   1.906   2.433  10.542 -0.9189  0.9334  0.7798
 5905SOL     OW19155   2.572   6.259   6.874  0.2835  0.4092 -0.0539
 5905SOL    HW119156   2.620   6.225   6.950  0.7756 -0.0860 -0.5759
 5905SOL    HW219157   2.535   6.181   6.833  0.0812  0.6703 -0.3700
 5906SOL     OW19158   5.167   4.328   0.953  0.1744 -0.5883 -0.2474
 5906SOL    HW119159   5.107   4.380   0.900  1.0658  1.1398  0.3560
 5906SOL    HW219160   5.238   4.305   0.893  1.6154  2.0844  0.2358
 5907SOL     OW19161   4.696   3.367   6.579  0.3473 -0.5166 -0.2007
 5907SOL    HW119162   4.630   3.386   6.514  1.4893  4.2523 -0.3773
 5907SOL    HW219163   4.771   3.335   6.529  0.1145 -0.1434 -0.7978
 5908SOL     OW19164   2.215   0.092   7.744  0.2880 -0.2057 -0.1395
 5908SOL    HW119165   2.301   0.073   7.780  1.2192  1.1111 -1.5817
 5908SOL    HW219166   2.219   0.063   7.653  0.2406  2.4887 -1.0750
 5909SOL     OW19167   3.737   0.075  10.320  0.1240  0.3068  0.0533
 5909SOL    HW119168   3.672   0.025  10.271  0.7299 -1.9664  1.4554
 5909SOL    HW219169   3.761   0.147  10.261 -2.2417  0.1387 -1.2321
 5910SOL     OW19170   6.071   1.602  10.521 -0.7674  0.1885  0.2111
 5910SOL    HW119171   6.005   1.534  10.514 -1.9535  1.1172  1.7997
 5910SOL    HW219172   6.057   1.641  10.607  0.5711  1.7418 -0.2167
 5911SOL     OW19173   1.329   2.602   5.615 -0.1770  0.5825 -0.1402
 5911SOL    HW119174   1.368   2.524   5.576  1.0351  0.6586  0.8742
 5911SOL    HW219175   1.389   2.673   5.593 -1.1396  1.2099 -0.8350
 5912SOL     OW19176   4.674   7.940   7.102  0.4018 -0.1349  0.1256
 5912SOL    HW119177   4.752   7.888   7.084  1.2253  0.9304  0.5838
 5912SOL    HW219178   4.660   7.930   7.196 -1.9512 -2.9557 -0.3514
 5913SOL     OW19179   2.204   3.273  11.763  0.0189 -0.2945  0.5713
 5913SOL    HW119180   2.237   3.191  11.799  0.5516  0.4301  1.7871
 5913SOL    HW219181   2.137   3.301  11.825 -1.4097 -0.6598 -0.7525
 5914SOL     OW19182   7.732   0.773  11.292 -0.3070 -0.0087 -0.1145
 5914SOL    HW119183   7.699   0.688  11.262  0.2408  0.6369 -2.7951
 5914SOL    HW219184   7.789   0.803  11.221 -1.9571  3.4513 -0.1686
 5915SOL     OW19185   5.615   3.174   4.994 -0.2561 -0.1467 -0.1145
 5915SOL    HW119186   5.648   3.241   4.935 -3.0167  1.8674  0.4378
 5915SOL    HW219187   5.599   3.220   5.077 -3.1301 -1.1578  0.0139
 5916SOL     OW19188   4.966   4.149   2.190  0.0829 -0.0535  0.0667
 5916SOL    HW119189   4.883   4.180   2.153 -0.2305 -0.2278  0.5974
 5916SOL    HW219190   4.940   4.075   2.245  0.4077  0.7417  1.3207
 5917SOL     OW19191   6.949   2.992  11.300  0.0732 -0.4231  0.2140
 5917SOL    HW119192   7.028   2.941  11.288  0.5157 -0.1757  1.7965
 5917SOL    HW219193   6.881   2.942  11.254  0.9951 -1.0090 -0.5512
 5918SOL     OW19194   2.257   7.126   9.357  0.1289  0.2690  0.3269
 5918SOL    HW119195   2.324   7.186   9.390  0.6166 -0.4414  0.6398
 5918SOL    HW219196   2.211   7.097   9.435 -0.4380  0.6207  0.1254
 5919SOL     OW19197   7.523   7.595   5.812  0.6748  0.5138 -0.5706
 5919SOL    HW119198   7.560   7.538   5.879 -0.4970 -0.4963 -0.7366
 5919SOL    HW219199   7.502   7.676   5.858 -1.8275 -0.7827  0.8127
 5920SOL     OW19200   2.800   7.675   7.194  0.3573 -0.2710 -0.3927
 5920SOL    HW119201   2.845   7.598   7.227  0.3461 -0.4369 -0.7587
 5920SOL    HW219202   2.869   7.741   7.183 -0.0115  0.8258  2.8094
 5921SOL     OW19203   3.022   6.154  10.284  0.7166 -0.3492  0.5511
 5921SOL    HW119204   3.054   6.180  10.370  1.6021  2.6723 -0.5468
 5921SOL    HW219205   2.933   6.122  10.299  1.3588 -1.3064  2.7034
 5922SOL     OW19206   7.861   4.864  11.879  0.3882  0.0389  0.0745
 5922SOL    HW119207   7.783   4.919  11.876  0.1053 -0.3493  0.3376
 5922SOL    HW219208   7.924   4.910  11.822  0.7122  1.4659  1.4884
 5923SOL     OW19209   2.866   7.888   0.858 -0.5062  0.3766 -0.1820
 5923SOL    HW119210   2.879   7.863   0.949 -1.3107  0.8549  0.0765
 5923SOL    HW219211   2.775   7.919   0.854 -2.7372 -5.0975 -2.3093
 5924SOL     OW19212   2.949   4.816  11.961 -0.0662  0.3111 -0.5827
 5924SOL    HW119213   3.036   4.831  11.997  1.1235  0.8052 -3.3791
 5924SOL    HW219214   2.956   4.734  11.912 -1.5592 -0.3189  0.1943
 5925SOL     OW19215   0.794   6.604   7.771  0.1264  0.5477  0.1092
 5925SOL    HW119216   0.823   6.522   7.732 -1.0013  1.1077 -2.0961
 5925SOL    HW219217   0.796   6.588   7.865 -2.3199 -2.8734 -0.2343
 5926SOL     OW19218   0.828   5.151   7.695 -0.0049  0.4725  0.4960
 5926SOL    HW119219   0.861   5.066   7.668 -2.3256 -0.7194  1.0935
 5926SOL    HW219220   0.750   5.165   7.641  0.6573  2.5567 -0.0381
 5927SOL     OW19221   6.324   7.913   4.804 -0.7397 -0.5743  0.2950
 5927SOL    HW119222   6.398   7.962   4.769 -1.5530  0.1750 -0.4213
 5927SOL    HW219223   6.357   7.824   4.815 -0.7124 -1.2154 -3.5689
 5928SOL     OW19224   1.615   0.735  11.300  0.2837 -0.1309  0.2229
 5928SOL    HW119225   1.685   0.673  11.321  0.3565 -0.6728 -1.4707
 5928SOL    HW219226   1.569   0.695  11.225 -2.5467 -0.3229  1.9296
 5929SOL     OW19227   5.810   4.963   1.545 -0.5317  0.2117  0.1147
 5929SOL    HW119228   5.841   4.878   1.577 -0.8933  0.2064  0.4530
 5929SOL    HW219229   5.747   4.940   1.476  0.8096  0.2275 -1.1637
 5930SOL     OW19230   5.168   6.469  10.592 -0.1014  0.3296 -0.1118
 5930SOL    HW119231   5.187   6.526  10.517  0.3758 -1.5588 -1.4904
 5930SOL    HW219232   5.212   6.511  10.666  0.3546  1.6579 -1.1064
 5931SOL     OW19233   6.243   1.832  10.830 -1.1805 -0.0202  0.0150
 5931SOL    HW119234   6.333   1.859  10.846 -1.0802 -1.1634  1.5098
 5931SOL    HW219235   6.213   1.891  10.761  0.8174  0.1447 -0.7829
 5932SOL     OW19236   7.243   1.388  10.422 -0.3648  0.1556 -0.4217
 5932SOL    HW119237   7.296   1.454  10.468 -1.1286  1.3939 -1.2379
 5932SOL    HW219238   7.236   1.316  10.484  1.1194  0.5265  0.2303
 5933SOL     OW19239   0.301   5.797   6.765 -0.1691 -0.0747 -0.6653
 5933SOL    HW119240   0.363   5.840   6.823 -0.5189  0.4188 -0.6509
 5933SOL    HW219241   0.229   5.860   6.755 -0.9982 -0.8998 -0.1410
 5934SOL     OW19242   1.403   6.682   9.242 -0.2027 -0.0999  0.0014
 5934SOL    HW119243   1.430   6.645   9.158  0.2862 -0.2428  0.2151
 5934SOL    HW219244   1.476   6.661   9.301  1.1500  3.0883 -0.3465
 5935SOL     OW19245   3.066   5.570   6.633  0.6786 -0.0132  0.2830
 5935SOL    HW119246   3.002   5.569   6.562 -1.1354  0.3771  1.8174
 5935SOL    HW219247   3.124   5.497   6.614 -2.1948 -2.5833  0.4363
 5936SOL     OW19248   2.602   0.350   0.477  0.8142 -0.6768 -0.3985
 5936SOL    HW119249   2.559   0.289   0.416 -1.5505  0.7855 -0.3096
 5936SOL    HW219250   2.604   0.433   0.430 -0.0967  0.2336  1.0933
 5937SOL     OW19251   1.481   4.885  12.210  0.1915  0.2063  0.2271
 5937SOL    HW119252   1.544   4.911  12.277  0.3150  0.0719  0.1620
 5937SOL    HW219253   1.477   4.790  12.215  0.6119  0.1542 -0.3265
 5938SOL     OW19254   7.582   4.270   5.357  0.4406  0.0462  0.2941
 5938SOL    HW119255   7.502   4.277   5.305 -0.6938 -0.0454  1.9587
 5938SOL    HW219256   7.629   4.351   5.339 -0.6932  0.7400  0.3447
 5939SOL     OW19257   7.302   1.635   8.553  0.3240  0.5763  0.2359
 5939SOL    HW119258   7.334   1.575   8.486  0.2446 -0.0528  0.7417
 5939SOL    HW219259   7.354   1.714   8.543  0.4511  0.4099 -0.4290
 5940SOL     OW19260   6.330   5.830   5.640 -0.0375 -0.0035 -0.4361
 5940SOL    HW119261   6.286   5.774   5.576  0.6957  0.1088 -1.0629
 5940SOL    HW219262   6.380   5.892   5.586  0.3887  0.2611  0.2526
 5941SOL     OW19263   4.733   1.967   3.044  0.2357  0.2496 -0.0936
 5941SOL    HW119264   4.717   1.917   2.964 -1.6974 -0.5283  0.6934
 5941SOL    HW219265   4.649   2.008   3.063 -0.0160 -1.2300  2.5739
 5942SOL     OW19266   0.540   6.770   1.580  0.1131  0.4754 -0.0709
 5942SOL    HW119267   0.550   6.677   1.558 -1.5228 -0.2504  1.8944
 5942SOL    HW219268   0.614   6.789   1.639 -0.1859  0.0831  0.4379
 5943SOL     OW19269   3.159   0.201   8.783  0.0782  0.3571 -0.0745
 5943SOL    HW119270   3.119   0.122   8.747  0.8924  0.4672 -1.2767
 5943SOL    HW219271   3.140   0.269   8.719 -1.0076  1.2697  1.1679
 5944SOL     OW19272   0.291   4.565  10.676 -0.6234  0.0487  0.4616
 5944SOL    HW119273   0.353   4.492  10.685  0.8110  1.1086 -0.4539
 5944SOL    HW219274   0.266   4.564  10.584  0.2100  1.3249  0.2072
 5945SOL     OW19275   5.252   0.202   5.577  0.0940  0.0037 -0.0841
 5945SOL    HW119276   5.196   0.279   5.587  0.9619  0.6477 -0.1226
 5945SOL    HW219277   5.281   0.205   5.486 -0.0876 -0.5282 -0.1659
 5946SOL     OW19278   0.532   7.150   9.063  0.0522 -0.0901 -0.2252
 5946SOL    HW119279   0.584   7.069   9.061 -0.6962 -0.6158 -2.7590
 5946SOL    HW219280   0.590   7.216   9.025 -0.0120  0.1112  0.0242
 5947SOL     OW19281   2.071   2.261   6.950 -0.5579  0.0019  0.4424
 5947SOL    HW119282   2.060   2.221   6.864 -1.0364  1.5369 -0.2488
 5947SOL    HW219283   2.127   2.337   6.934 -2.0747  1.3346  1.1375
 5948SOL     OW19284   7.238   2.051  11.742 -0.0867  0.1262 -0.1683
 5948SOL    HW119285   7.299   1.985  11.710 -1.1969 -0.7569 -0.5515
 5948SOL    HW219286   7.177   2.064  11.669 -1.9590 -1.0340  1.1046
 5949SOL     OW19287   4.615   7.537   2.602 -0.0726 -0.0235  0.1464
 5949SOL    HW119288   4.634   7.623   2.640 -0.2416  0.5213 -0.9499
 5949SOL    HW219289   4.678   7.529   2.530 -0.2532 -0.6909  0.0576
 5950SOL     OW19290   0.081   2.416  11.246  0.0302  0.3736 -0.2739
 5950SOL    HW119291   0.049   2.506  11.237 -0.9436  0.1590  0.7593
 5950SOL    HW219292   0.159   2.425  11.300  0.7433  0.7237 -1.3306
 5951SOL     OW19293   0.159   1.328  11.560  0.0354 -0.1434  0.0925
 5951SOL    HW119294   0.187   1.316  11.651  1.7489  1.3284 -0.1773
 5951SOL    HW219295   0.229   1.380  11.521 -0.8035 -0.5324 -2.0129
 5952SOL     OW19296   6.794   2.213   9.082  0.3649 -0.0169  0.3655
 5952SOL    HW119297   6.750   2.134   9.050 -0.0739 -0.5447  2.1226
 5952SOL    HW219298   6.847   2.242   9.009 -0.8769 -0.8863 -0.9478
 5953SOL     OW19299   4.932   5.729   4.602 -0.0815 -0.3177  0.1396
 5953SOL    HW119300   4.941   5.687   4.516 -2.9019 -1.1410  0.1310
 5953SOL    HW219301   4.970   5.666   4.663 -0.1706 -0.8080 -0.2974
 5954SOL     OW19302   1.291   3.860   0.406  0.1401  0.7445 -0.0667
 5954SOL    HW119303   1.334   3.812   0.477  0.0953 -0.0760 -0.5887
 5954SOL    HW219304   1.199   3.866   0.432 -0.4001 -1.6818 -1.1286
 5955SOL     OW19305   6.202   7.332  12.264  0.0631  0.0896  0.2387
 5955SOL    HW119306   6.114   7.343  12.300 -0.1363  0.1941 -0.2677
 5955SOL    HW219307   6.260   7.371  12.330 -0.1483 -1.1344  1.1784
 5956SOL     OW19308   1.533   7.045   4.129  0.3860 -0.7032  0.0562
 5956SOL    HW119309   1.567   7.022   4.215 -1.1403  1.4156  1.3405
 5956SOL    HW219310   1.455   6.990   4.118 -0.4895  0.3166  0.9266
 5957SOL     OW19311   3.338   5.440   5.134 -0.0301 -0.0323  0.1641
 5957SOL    HW119312   3.339   5.480   5.221 -1.0328  1.9975 -0.6932
 5957SOL    HW219313   3.410   5.483   5.087  0.6642 -1.2911  0.0088
 5958SOL     OW19314   4.638   4.661   0.593  0.1564 -0.8642  0.5202
 5958SOL    HW119315   4.688   4.653   0.512 -0.8123  2.9799 -0.6554
 5958SOL    HW219316   4.702   4.688   0.659  0.3289 -0.1909  0.0791
 5959SOL     OW19317   5.629   7.358   8.797  0.4811  0.6627  0.3928
 5959SOL    HW119318   5.616   7.367   8.891  0.2303  1.6980  0.2730
 5959SOL    HW219319   5.574   7.284   8.771  0.0854  0.7575  0.9607
 5960SOL     OW19320   4.682   6.481   3.863  0.0622  0.2353  0.0586
 5960SOL    HW119321   4.658   6.479   3.955 -3.0684  1.0482 -0.6435
 5960SOL    HW219322   4.619   6.541   3.822 -0.9709 -2.7162 -3.1853
 5961SOL     OW19323   3.499   6.340   7.210 -0.6427 -0.0274 -0.7959
 5961SOL    HW119324   3.423   6.393   7.231 -1.3955 -0.9520 -1.1033
 5961SOL    HW219325   3.565   6.365   7.275 -1.1890  0.8065 -0.5507
 5962SOL     OW19326   7.928   7.813   2.249  0.4882  0.2729  0.6172
 5962SOL    HW119327   7.884   7.732   2.274  1.5330 -0.6507 -0.4586
 5962SOL    HW219328   7.998   7.824   2.313  1.0204 -0.2634  0.1360
 5963SOL     OW19329   3.671   1.758   0.021 -0.1744  0.4520 -0.5390
 5963SOL    HW119330   3.756   1.803   0.021 -0.3413  0.7720 -0.6679
 5963SOL    HW219331   3.681   1.689   0.086 -0.4088  1.6261  0.8045
 5964SOL     OW19332   7.535   7.429   7.518 -0.5293 -0.5098 -0.1037
 5964SOL    HW119333   7.452   7.463   7.551  0.6614  2.0266  0.5412
 5964SOL    HW219334   7.587   7.411   7.596 -0.1475 -1.2449 -0.5162
 5965SOL     OW19335   3.523   4.053   1.579  0.2223 -0.5866 -0.1197
 5965SOL    HW119336   3.444   4.104   1.595 -1.6416 -2.5702 -2.3874
 5965SOL    HW219337   3.505   3.967   1.618  1.8500 -0.6713  0.5257
 5966SOL     OW19338   0.565   5.684   1.209 -0.1320  0.4623  0.3446
 5966SOL    HW119339   0.547   5.590   1.205 -1.2675  0.6322  0.8699
 5966SOL    HW219340   0.534   5.718   1.125  1.0542  0.2557 -0.1827
 5967SOL     OW19341   5.353   7.130   1.685 -0.3209  0.3750 -0.3416
 5967SOL    HW119342   5.260   7.134   1.662 -0.3559  0.2287 -0.2287
 5967SOL    HW219343   5.393   7.201   1.635 -0.7042  1.2771  0.6048
 5968SOL     OW19344   3.301   1.028  10.198  0.6365 -0.0862  0.3768
 5968SOL    HW119345   3.306   1.006  10.105 -1.4102  0.3518  0.1226
 5968SOL    HW219346   3.305   1.123  10.201 -0.2213 -0.0451  0.6366
 5969SOL     OW19347   4.818   3.385   3.478  0.4629  0.0086  0.6537
 5969SOL    HW119348   4.758   3.353   3.411 -1.1949 -0.5857  2.3162
 5969SOL    HW219349   4.891   3.324   3.477  0.2114 -0.2896 -0.2633
 5970SOL     OW19350   5.108   3.247  10.763  0.5084 -0.0097  0.0723
 5970SOL    HW119351   5.190   3.197  10.768  0.9577  0.5267 -1.3254
 5970SOL    HW219352   5.133   3.336  10.788  0.8422  0.6123 -2.1860
 5971SOL     OW19353   4.598   7.593   4.877 -0.4491  0.1630  0.0112
 5971SOL    HW119354   4.682   7.606   4.834  0.4774 -3.0315  0.6133
 5971SOL    HW219355   4.543   7.551   4.810 -0.0972 -1.6876  0.8108
 5972SOL     OW19356   1.291   7.280   2.699 -0.6682  0.1127 -0.1648
 5972SOL    HW119357   1.355   7.326   2.753  0.7943 -0.6932 -1.1689
 5972SOL    HW219358   1.220   7.257   2.760 -0.4435  1.7966  0.7698
 5973SOL     OW19359   2.706   4.656   3.850 -0.4322 -0.0468  0.3923
 5973SOL    HW119360   2.672   4.745   3.844 -0.5648 -0.1588 -0.6198
 5973SOL    HW219361   2.801   4.666   3.837 -0.6606 -0.2353 -1.7995
 5974SOL     OW19362   1.023   6.016   0.856 -0.0885  0.4971 -0.5263
 5974SOL    HW119363   1.021   6.107   0.827 -0.7897 -0.0390 -2.3004
 5974SOL    HW219364   0.978   6.016   0.940  0.4772  1.8754 -0.2100
 5975SOL     OW19365   6.722   5.766   3.517 -0.0062 -0.1803 -0.0066
 5975SOL    HW119366   6.751   5.703   3.451 -0.0495 -0.7893  0.5504
 5975SOL    HW219367   6.793   5.767   3.581  0.5079  1.1630 -0.5463
 5976SOL     OW19368   3.544   5.246   0.057  0.2905 -0.1423  0.2585
 5976SOL    HW119369   3.605   5.212  -0.008 -0.3577 -0.0495 -0.4126
 5976SOL    HW219370   3.569   5.204   0.139  0.4784 -1.0365 -0.2534
 5977SOL     OW19371   0.980   3.210   4.446 -0.4068  0.0620  0.0630
 5977SOL    HW119372   1.042   3.222   4.518  0.5323 -2.2175 -0.2723
 5977SOL    HW219373   0.895   3.235   4.484  0.2622  0.2138  1.5324
 5978SOL     OW19374   7.816   2.882   9.451  0.2532  0.4083 -0.8145
 5978SOL    HW119375   7.888   2.923   9.500 -0.5485  1.7771 -0.7319
 5978SOL    HW219376   7.737   2.915   9.494 -0.4845 -2.4061  0.2125
 5979SOL     OW19377   6.260   4.313   2.103 -0.5140 -0.2284 -0.4402
 5979SOL    HW119378   6.271   4.258   2.180 -1.8072  0.4828  0.2803
 5979SOL    HW219379   6.169   4.343   2.108 -0.6877 -0.3128 -2.3371
 5980SOL     OW19380   2.967   3.578   0.459 -0.3192  0.4357  0.0459
 5980SOL    HW119381   2.990   3.649   0.518 -0.3123  0.0486  0.5183
 5980SOL    HW219382   2.902   3.527   0.507  0.1565 -0.2467 -0.0161
 5981SOL     OW19383   6.865   4.673   7.012  0.6857 -0.0074 -0.7799
 5981SOL    HW119384   6.813   4.745   6.975 -0.0700 -0.8910 -1.5026
 5981SOL    HW219385   6.806   4.597   7.008  0.2159 -0.0156  3.0915
 5982SOL     OW19386   2.285   1.067   2.017 -0.0062 -0.2838 -0.2873
 5982SOL    HW119387   2.197   1.098   2.037  0.7168  1.0466  1.0895
 5982SOL    HW219388   2.343   1.133   2.055  1.6713 -2.9183  2.1775
 5983SOL     OW19389   3.627   7.571   0.423  0.1624 -0.1146  0.0242
 5983SOL    HW119390   3.676   7.492   0.397  0.3723  0.3830 -1.1829
 5983SOL    HW219391   3.630   7.627   0.345 -2.5737 -0.1893 -0.2366
 5984SOL     OW19392   4.703   2.669   5.887 -0.5115  0.1878 -0.9590
 5984SOL    HW119393   4.664   2.716   5.813 -1.5005  2.1995  0.7530
 5984SOL    HW219394   4.630   2.622   5.927 -0.4965  1.0483  0.1219
 5985SOL     OW19395   2.535   4.860   3.944 -0.2380 -0.0745  0.1467
 5985SOL    HW119396   2.486   4.841   4.025  0.2268  2.6667  1.1518
 5985SOL    HW219397   2.592   4.933   3.967  1.3380 -0.4970 -2.1685
 5986SOL     OW19398   7.932   6.808   1.270  0.4721  0.2647  0.5185
 5986SOL    HW119399   7.847   6.817   1.226  0.9418 -0.6371 -0.6233
 5986SOL    HW219400   7.984   6.881   1.236  1.2039 -1.0744 -1.3732
 5987SOL     OW19401   2.739   3.316   2.258  0.3146  0.0498 -0.1434
 5987SOL    HW119402   2.748   3.249   2.190  1.7009 -1.0835  1.0702
 5987SOL    HW219403   2.806   3.293   2.322 -0.4757  1.4998  1.2620
 5988SOL     OW19404   6.132   6.750   0.409 -0.2226  0.3092  0.2591
 5988SOL    HW119405   6.119   6.836   0.368  0.4769  0.4449  0.3012
 5988SOL    HW219406   6.045   6.724   0.440 -0.4474  0.9814  0.2073
 5989SOL     OW19407   7.574   0.807   1.999 -0.2631 -0.5427 -0.3769
 5989SOL    HW119408   7.662   0.843   1.996 -0.2461 -0.2617  1.9813
 5989SOL    HW219409   7.517   0.883   2.013 -0.6835 -0.9254  0.0180
 5990SOL     OW19410   2.171   6.827   8.734  0.0508  0.4382 -0.2617
 5990SOL    HW119411   2.253   6.822   8.685 -0.3224 -1.9075 -0.7470
 5990SOL    HW219412   2.106   6.851   8.668 -0.1732 -1.0685 -0.6272
 5991SOL     OW19413   6.189   4.401   6.711  0.0590 -0.2185  0.4217
 5991SOL    HW119414   6.247   4.360   6.646 -1.0522  0.3479 -0.9831
 5991SOL    HW219415   6.194   4.343   6.787  0.5790 -1.5182 -0.5553
 5992SOL     OW19416   7.576   3.036   9.182  0.0227  0.2283  0.1105
 5992SOL    HW119417   7.667   3.007   9.176 -0.5169 -1.6056  0.2963
 5992SOL    HW219418   7.536   2.976   9.246 -1.0620  1.6997  0.8786
 5993SOL     OW19419   1.961   1.925  11.775 -0.2937  0.4343  0.0217
 5993SOL    HW119420   1.998   1.891  11.694  1.7328  2.2032  0.1214
 5993SOL    HW219421   1.975   1.855  11.839  1.5089  0.4045 -0.3417
 5994SOL     OW19422   1.278   1.787   5.042  0.2941 -0.1906  0.0502
 5994SOL    HW119423   1.284   1.714   4.980  0.4056  1.6409 -2.2533
 5994SOL    HW219424   1.340   1.764   5.111  2.5083 -1.0127 -2.0455
 5995SOL     OW19425   7.659   2.618  12.273  0.1728  0.0040 -0.4321
 5995SOL    HW119426   7.590   2.574  12.224 -1.8479  1.6763  0.7548
 5995SOL    HW219427   7.619   2.700  12.303  2.6865  1.0406  0.3320
 5996SOL     OW19428   4.766   0.021  10.490  0.3888 -0.7403  0.1391
 5996SOL    HW119429   4.771   0.116  10.496  1.0915 -0.7775  0.3224
 5996SOL    HW219430   4.721  -0.006  10.570 -0.0911 -0.5462 -0.0638
 5997SOL     OW19431   5.686   4.688   4.516 -0.7163 -0.0884 -0.4158
 5997SOL    HW119432   5.685   4.603   4.472  0.7536  0.1567 -0.9660
 5997SOL    HW219433   5.726   4.748   4.453  1.4598  0.2741  1.1600
 5998SOL     OW19434   1.600   0.844   2.518  0.1193  0.2704  0.0588
 5998SOL    HW119435   1.628   0.847   2.609 -0.4179  1.2657  0.2117
 5998SOL    HW219436   1.573   0.753   2.503  1.8674 -0.3323  0.3570
 5999SOL     OW19437   4.038   0.941   3.644 -0.1778  0.1973 -0.3257
 5999SOL    HW119438   3.953   0.900   3.627 -0.0158 -0.1478 -0.3223
 5999SOL    HW219439   4.089   0.872   3.687  0.9352 -0.4614 -2.5384
 6000SOL     OW19440   0.675   6.562   3.450 -0.5866 -0.3619 -0.1724
 6000SOL    HW119441   0.754   6.591   3.496  0.0235 -1.0733 -0.7430
 6000SOL    HW219442   0.605   6.571   3.514  0.3032 -1.7171  1.0389
 6001SOL     OW19443   3.851   0.066   2.303 -0.3574  1.0360 -0.0448
 6001SOL    HW119444   3.803   0.071   2.385 -1.4457 -2.2813 -0.3226
 6001SOL    HW219445   3.785   0.083   2.235 -0.3529  0.0304 -0.3156
 6002SOL     OW19446   7.772   4.748  12.309  0.4462  0.5573  0.0523
 6002SOL    HW119447   7.716   4.782  12.239  0.6075 -0.1443 -0.4246
 6002SOL    HW219448   7.799   4.826  12.358 -0.4743  0.9641 -0.0533
 6003SOL     OW19449   3.550   7.377   2.272 -0.0836 -0.5553 -0.6931
 6003SOL    HW119450   3.465   7.388   2.313 -2.1685 -0.3705 -4.6172
 6003SOL    HW219451   3.580   7.290   2.298 -1.1748 -0.4041  1.1687
 6004SOL     OW19452   1.294   1.223   9.490  0.3089 -0.8998 -0.6934
 6004SOL    HW119453   1.251   1.228   9.405  0.2154  0.3074 -0.5936
 6004SOL    HW219454   1.267   1.303   9.536  2.3946 -0.2251 -0.5175
 6005SOL     OW19455   6.015   3.579   6.989  0.0429  0.2111  0.2471
 6005SOL    HW119456   5.946   3.547   7.047  0.3733  0.6463  0.8965
 6005SOL    HW219457   5.972   3.647   6.937 -0.1952 -0.0123  0.1476
 6006SOL     OW19458   4.525   2.617   4.078 -0.1756  0.4538 -0.5891
 6006SOL    HW119459   4.586   2.551   4.111 -2.5850 -0.8925  1.4796
 6006SOL    HW219460   4.565   2.701   4.102  0.8161 -0.3770  0.7640
 6007SOL     OW19461   1.753   7.628   9.526  0.8311 -0.2820  0.1244
 6007SOL    HW119462   1.793   7.559   9.472 -1.0477 -0.0180 -1.7365
 6007SOL    HW219463   1.801   7.707   9.501  0.9147 -0.3973 -0.0928
 6008SOL     OW19464   5.807   5.134   4.494 -0.7324 -0.5781  0.3397
 6008SOL    HW119465   5.814   5.048   4.455 -0.7072 -0.4238  0.0022
 6008SOL    HW219466   5.813   5.118   4.589  1.4228 -0.7568  0.2256
 6009SOL     OW19467   6.679   2.317  12.176  0.1371 -0.0105  0.9035
 6009SOL    HW119468   6.775   2.308  12.172  0.1436  0.1000  0.7975
 6009SOL    HW219469   6.652   2.321  12.085 -0.0871 -1.2125  0.8981
 6010SOL     OW19470   7.431   6.084   8.705 -0.1852 -0.0274  0.4549
 6010SOL    HW119471   7.479   6.002   8.692 -2.1393 -1.1250 -0.1707
 6010SOL    HW219472   7.490   6.137   8.758  1.8739 -1.1462 -0.5951
 6011SOL     OW19473   0.118   4.195   5.171 -0.1600 -0.7229 -0.0111
 6011SOL    HW119474   0.102   4.108   5.209  1.1566 -0.5560  1.0081
 6011SOL    HW219475   0.080   4.256   5.234 -0.0150 -0.5133 -0.1258
 6012SOL     OW19476   3.260   3.106   0.958  0.0734 -0.3349  0.7581
 6012SOL    HW119477   3.238   3.026   1.006 -2.0408 -0.2309  0.0838
 6012SOL    HW219478   3.214   3.176   1.006  1.4463  0.4215  1.0237
 6013SOL     OW19479   0.867   3.819   2.470  0.2975  0.1230 -0.3175
 6013SOL    HW119480   0.792   3.863   2.508  1.9784  1.7262  1.3732
 6013SOL    HW219481   0.845   3.726   2.472 -1.9558  0.5961 -0.7452
 6014SOL     OW19482   1.591   4.599   5.410  0.5756  0.3299 -0.8376
 6014SOL    HW119483   1.594   4.649   5.491  0.5514  0.8440 -1.1457
 6014SOL    HW219484   1.623   4.512   5.433  1.9500  0.8905 -0.5943
 6015SOL     OW19485   3.066   4.026   2.643  0.0675 -0.0851 -0.5793
 6015SOL    HW119486   2.989   4.083   2.644 -1.5413 -2.1119  1.0037
 6015SOL    HW219487   3.090   4.020   2.550  0.3943  3.1339 -0.8138
 6016SOL     OW19488   4.291   6.910   2.088 -0.9269  0.9068 -0.4665
 6016SOL    HW119489   4.197   6.929   2.097 -1.2072 -0.6300  0.0978
 6016SOL    HW219490   4.330   6.948   2.167 -1.2619  0.4257 -0.0660
 6017SOL     OW19491   4.718   6.007  11.824 -0.0193 -0.1425  0.4396
 6017SOL    HW119492   4.765   5.924  11.833 -1.8103 -1.3184 -0.4375
 6017SOL    HW219493   4.707   6.039  11.913 -2.2368 -2.6199  1.1646
 6018SOL     OW19494   6.549   6.163   2.225  1.0568  0.2777  0.4740
 6018SOL    HW119495   6.585   6.188   2.310  0.4855 -1.7765  1.3736
 6018SOL    HW219496   6.568   6.070   2.218  0.1477  0.1908 -1.1963
 6019SOL     OW19497   4.126   5.777   1.377  0.1172  0.2469  0.4127
 6019SOL    HW119498   4.078   5.724   1.441 -0.0258  1.4840  1.3650
 6019SOL    HW219499   4.062   5.793   1.308  0.1549 -0.7675  0.1134
 6020SOL     OW19500   7.181   7.810   3.908 -0.1374 -0.8134  0.3412
 6020SOL    HW119501   7.124   7.754   3.856  1.9771 -2.3922 -0.3864
 6020SOL    HW219502   7.242   7.750   3.950  2.0436  0.8969 -0.2253
 6021SOL     OW19503   2.131   2.345   8.452 -0.4468 -0.1709  0.2083
 6021SOL    HW119504   2.057   2.400   8.478 -1.1245 -0.9716  0.0371
 6021SOL    HW219505   2.105   2.308   8.367  0.1399 -0.4798  0.1520
 6022SOL     OW19506   0.349   4.519   9.793  0.1869 -0.2478  0.1096
 6022SOL    HW119507   0.356   4.567   9.876  1.1135 -0.3460  0.0982
 6022SOL    HW219508   0.429   4.541   9.746  0.1733 -1.0531 -0.3046
 6023SOL     OW19509   3.285   5.390   7.476 -0.5355 -0.1604  0.2021
 6023SOL    HW119510   3.307   5.331   7.548  0.9919  2.3453  1.9723
 6023SOL    HW219511   3.192   5.410   7.489 -0.4844 -0.3954  1.0094
 6024SOL     OW19512   3.775   5.558   6.314  0.0089 -0.5013 -0.0327
 6024SOL    HW119513   3.774   5.552   6.410  0.8975 -1.0916 -0.0470
 6024SOL    HW219514   3.727   5.481   6.285 -1.0958  0.1729 -0.0721
 6025SOL     OW19515   6.452   4.069  10.935  0.3864 -0.1782 -0.0425
 6025SOL    HW119516   6.372   4.065  10.882  0.6201 -2.3403 -0.3114
 6025SOL    HW219517   6.449   4.155  10.977 -1.6258  0.1271 -0.7269
 6026SOL     OW19518   3.603   2.976   2.972 -0.0186  0.4390  0.6719
 6026SOL    HW119519   3.696   2.959   2.986 -0.2727 -0.1477  1.7084
 6026SOL    HW219520   3.558   2.904   3.016 -0.9522  0.2708 -0.5049
 6027SOL     OW19521   2.246   4.478   5.305 -0.0496 -0.3857  0.0974
 6027SOL    HW119522   2.320   4.423   5.331  2.1198  1.1141 -2.3864
 6027SOL    HW219523   2.221   4.446   5.219 -0.5882  0.7116 -0.1733
 6028SOL     OW19524   5.769   5.263   1.597 -0.3709 -0.9702 -0.3661
 6028SOL    HW119525   5.784   5.168   1.602 -1.7950 -1.3081 -1.7946
 6028SOL    HW219526   5.681   5.275   1.631 -0.7416 -0.3454 -1.5133
 6029SOL     OW19527   7.326   5.479   4.561 -0.5378 -0.0681  0.0231
 6029SOL    HW119528   7.413   5.514   4.582 -0.6549  0.0819  0.2535
 6029SOL    HW219529   7.340   5.428   4.481  0.0781 -1.3300  0.8963
 6030SOL     OW19530   2.895   3.928   9.930 -0.2126  0.2280  0.1428
 6030SOL    HW119531   2.855   3.892  10.009 -1.2106 -0.0656 -0.4816
 6030SOL    HW219532   2.921   4.017   9.955 -0.8116  0.2486  0.7112
 6031SOL     OW19533   4.298   4.147   8.352 -0.4568 -0.2191 -0.1096
 6031SOL    HW119534   4.253   4.091   8.415  1.5177 -0.2756  1.3086
 6031SOL    HW219535   4.321   4.087   8.280  0.5728 -0.9934  0.8409
 6032SOL     OW19536   1.875   7.518   2.255  0.9291 -0.3157  0.3168
 6032SOL    HW119537   1.937   7.448   2.276  1.7075  0.4475  0.6317
 6032SOL    HW219538   1.927   7.583   2.208  0.5086  0.5809  1.0560
 6033SOL     OW19539   3.578   6.113  11.564 -0.0769 -0.0362 -0.5563
 6033SOL    HW119540   3.522   6.117  11.486  0.4941 -2.2223 -1.1546
 6033SOL    HW219541   3.659   6.072  11.533  0.5065 -0.1349  1.0113
 6034SOL     OW19542   3.591   3.195   6.281  0.3624 -0.2817 -0.4218
 6034SOL    HW119543   3.600   3.177   6.375 -2.7318 -2.8889 -0.4512
 6034SOL    HW219544   3.615   3.287   6.272  0.5625  0.1198  2.9627
 6035SOL     OW19545   7.846   7.313   2.388 -0.2201  0.2714  0.2557
 6035SOL    HW119546   7.859   7.222   2.363 -1.4797  0.1472 -0.0117
 6035SOL    HW219547   7.932   7.353   2.379  0.2291 -0.7605 -0.1644
 6036SOL     OW19548   2.276   5.988   0.851  0.4293 -0.0851  0.4884
 6036SOL    HW119549   2.242   5.905   0.885 -2.2075  1.1150  0.9543
 6036SOL    HW219550   2.232   5.999   0.767  1.4321  0.4472  0.0138
 6037SOL     OW19551   7.278   2.915  11.978  0.2213 -0.3762  0.0982
 6037SOL    HW119552   7.251   2.855  12.047  0.3702  0.9976  1.3970
 6037SOL    HW219553   7.196   2.948  11.941  0.1165 -1.9665 -1.2297
 6038SOL     OW19554   0.949   6.836   3.601 -0.1294 -0.6419 -0.0191
 6038SOL    HW119555   0.922   6.856   3.691  0.4825 -0.2649  0.0850
 6038SOL    HW219556   0.936   6.742   3.592 -0.1963 -0.6800  0.4624
 6039SOL     OW19557   4.776   4.618  10.979  0.2076  0.5076  0.0787
 6039SOL    HW119558   4.829   4.686  10.937  2.7587 -1.0703  0.5244
 6039SOL    HW219559   4.772   4.644  11.071 -0.7892  1.2122 -0.1564
 6040SOL     OW19560   0.970   0.752   5.789 -0.0727 -0.0809  0.6425
 6040SOL    HW119561   0.951   0.813   5.718 -2.2790 -0.6901  0.6397
 6040SOL    HW219562   1.041   0.793   5.838  0.6108  0.9761 -1.1281
 6041SOL     OW19563   1.146   2.503   0.421 -0.1191  0.3785 -0.0756
 6041SOL    HW119564   1.164   2.411   0.401 -0.4411  0.1302  0.7624
 6041SOL    HW219565   1.110   2.502   0.509  0.2211  1.3517  0.0806
 6042SOL     OW19566   3.567   1.477  11.050 -0.6112 -0.2180  0.0278
 6042SOL    HW119567   3.635   1.528  11.093  2.0354 -0.8283 -3.0303
 6042SOL    HW219568   3.527   1.538  10.988  0.0507 -0.8246 -1.0434
 6043SOL     OW19569   3.756   7.181   4.256 -0.5968 -0.1605 -0.6199
 6043SOL    HW119570   3.688   7.211   4.195  1.1093  0.5313 -2.2778
 6043SOL    HW219571   3.836   7.182   4.204  0.4883 -2.3214  0.8669
 6044SOL     OW19572   6.618   2.474   9.679 -1.2691 -0.0433 -0.2172
 6044SOL    HW119573   6.564   2.406   9.719 -0.4870 -0.6575 -0.1785
 6044SOL    HW219574   6.704   2.463   9.718 -0.8310  0.2037 -1.0742
 6045SOL     OW19575   7.352   7.761   2.763  0.8193  0.5324 -0.0930
 6045SOL    HW119576   7.339   7.853   2.737  0.8996  0.3424 -0.8269
 6045SOL    HW219577   7.434   7.736   2.721 -0.1292 -0.4199 -1.4529
 6046SOL     OW19578   4.744   5.082   9.791  0.0544  0.6093  0.5737
 6046SOL    HW119579   4.807   5.153   9.799 -0.1572  0.6716  2.1583
 6046SOL    HW219580   4.724   5.059   9.882 -0.3870 -1.0191  0.0967
 6047SOL     OW19581   4.010   0.097  11.480  0.2704  0.2243 -0.8244
 6047SOL    HW119582   3.970   0.011  11.487  0.6553  0.1505  0.7927
 6047SOL    HW219583   3.963   0.139  11.407 -2.3189 -0.1053  0.5334
 6048SOL     OW19584   0.865   6.614   9.378  0.2503  0.0605  0.2059
 6048SOL    HW119585   0.888   6.655   9.295  0.8303  1.3622  0.9883
 6048SOL    HW219586   0.925   6.540   9.386 -1.6950 -1.9486 -1.8735
 6049SOL     OW19587   3.689   7.925  11.824 -0.0395  0.9384 -0.1460
 6049SOL    HW119588   3.724   8.014  11.818 -0.5102  1.1122 -0.3447
 6049SOL    HW219589   3.661   7.917  11.915  2.5929 -0.0034  0.6932
 6050SOL     OW19590   0.848   7.737  10.996  0.0401  0.2606 -0.3344
 6050SOL    HW119591   0.754   7.738  10.977  0.0726  1.3779 -0.5077
 6050SOL    HW219592   0.868   7.828  11.019  0.9371 -0.1154  0.4348
 6051SOL     OW19593   6.908   1.412   8.603 -0.1295  0.3791 -0.2414
 6051SOL    HW119594   6.961   1.489   8.580  0.2590 -0.5409 -2.7263
 6051SOL    HW219595   6.818   1.446   8.607  0.0826  1.0547 -0.8950
 6052SOL     OW19596   5.416   6.975   0.450  0.2160 -0.0341  0.0652
 6052SOL    HW119597   5.371   6.891   0.464  0.3717 -0.4472 -1.6041
 6052SOL    HW219598   5.410   7.020   0.534 -0.4433 -1.4472  0.8213
 6053SOL     OW19599   2.186   2.180   0.254 -0.4553  0.0588 -0.1019
 6053SOL    HW119600   2.137   2.157   0.175  0.4357 -0.2944 -0.5669
 6053SOL    HW219601   2.225   2.098   0.283  0.9257  0.5467 -0.4968
 6054SOL     OW19602   3.001   3.414   9.191  0.5245 -0.1745 -0.0894
 6054SOL    HW119603   3.079   3.441   9.143 -0.5067  1.5029 -0.9134
 6054SOL    HW219604   2.976   3.492   9.241  0.6603 -1.3890  2.0106
 6055SOL     OW19605   6.277   4.435   1.804 -0.0134 -0.2895  0.4905
 6055SOL    HW119606   6.329   4.393   1.873 -1.7335 -0.8354  1.5305
 6055SOL    HW219607   6.200   4.380   1.796 -0.8812  0.9982 -0.3240
 6056SOL     OW19608   5.778   2.103   3.573  0.2331  0.5653 -0.0754
 6056SOL    HW119609   5.776   2.155   3.493 -1.6091  1.4369  0.4771
 6056SOL    HW219610   5.728   2.024   3.551  0.2559  0.5204  0.0353
 6057SOL     OW19611   7.635   7.025   2.181 -0.1137 -0.3775 -0.2472
 6057SOL    HW119612   7.715   7.020   2.128  0.5853  1.8468  0.4956
 6057SOL    HW219613   7.665   7.022   2.271 -0.9437 -0.3580  0.0399
 6058SOL     OW19614   4.487   1.140   3.809  0.0029  0.2039  0.1309
 6058SOL    HW119615   4.453   1.086   3.738 -0.0954  0.3198  0.0888
 6058SOL    HW219616   4.574   1.105   3.828  0.3729  0.7097 -0.6155
 6059SOL     OW19617   0.440   1.112   0.857 -0.1260 -0.4565 -0.0555
 6059SOL    HW119618   0.368   1.080   0.912  0.0882  0.2459  0.6457
 6059SOL    HW219619   0.489   1.033   0.833 -0.2010 -0.7660  0.7905
 6060SOL     OW19620   6.539   3.809   4.161  0.5165  0.1746 -0.0825
 6060SOL    HW119621   6.583   3.825   4.078 -0.0866  2.1633 -0.0711
 6060SOL    HW219622   6.531   3.896   4.201  0.1868 -0.6533  1.7482
 6061SOL     OW19623   1.491   3.622   4.325 -0.5417 -0.1764  0.5333
 6061SOL    HW119624   1.402   3.598   4.352  0.4804 -1.6747  2.8140
 6061SOL    HW219625   1.516   3.554   4.262 -1.2596  0.7156 -0.7605
 6062SOL     OW19626   3.538   5.763  10.895  0.5615 -0.3049  0.0471
 6062SOL    HW119627   3.514   5.802  10.979 -0.9707  1.0713 -0.9829
 6062SOL    HW219628   3.634   5.766  10.894  0.5737  0.6157  1.3014
 6063SOL     OW19629   7.418   3.512   9.315  0.0303 -0.1764 -0.3268
 6063SOL    HW119630   7.331   3.488   9.284  0.2760 -0.2070 -1.0132
 6063SOL    HW219631   7.473   3.436   9.293  0.1681 -0.2956  0.4022
 6064SOL     OW19632   4.428   1.006   1.532  0.1923 -0.1488 -0.3505
 6064SOL    HW119633   4.464   0.918   1.522 -2.0130 -1.0456 -1.1350
 6064SOL    HW219634   4.333   0.992   1.540 -0.2954  2.2051 -1.2683
 6065SOL     OW19635   4.761   2.847  10.404 -0.0910 -1.1895  0.1319
 6065SOL    HW119636   4.786   2.829  10.313 -2.0695 -0.2182 -0.6786
 6065SOL    HW219637   4.669   2.819  10.409 -0.5350  0.3428  1.3084
 6066SOL     OW19638   0.779   3.361  11.106 -0.2234 -0.2537 -0.1612
 6066SOL    HW119639   0.740   3.341  11.191 -2.0677  0.1116 -0.8705
 6066SOL    HW219640   0.826   3.281  11.082  1.2451 -0.0074  1.6289
 6067SOL     OW19641   0.009   6.738   3.848 -0.1386  0.1255 -0.3811
 6067SOL    HW119642  -0.025   6.658   3.807 -0.3365 -0.8527  1.5524
 6067SOL    HW219643  -0.069   6.787   3.874 -0.0550 -0.1934  0.5037
 6068SOL     OW19644   3.054   5.446   6.107 -0.8487 -0.3435 -0.2411
 6068SOL    HW119645   2.972   5.424   6.151 -1.8705  0.6098 -1.5679
 6068SOL    HW219646   3.031   5.447   6.014  0.6759 -0.0288 -0.6378
 6069SOL     OW19647   1.881   4.134   8.958 -0.3788 -0.5024 -0.0769
 6069SOL    HW119648   1.893   4.218   8.913 -0.7189 -1.1904 -1.5232
 6069SOL    HW219649   1.786   4.125   8.967 -0.3752 -0.9679 -0.4385
 6070SOL     OW19650   3.865   2.718   4.681  0.4488 -0.5771  0.6911
 6070SOL    HW119651   3.836   2.695   4.593  0.8246 -0.6346  0.5802
 6070SOL    HW219652   3.939   2.659   4.698  1.0331  0.1214  0.6427
 6071SOL     OW19653   1.117   3.926   4.952 -0.6486  0.3300 -0.1280
 6071SOL    HW119654   1.200   3.969   4.934 -1.1410  1.8772  1.0691
 6071SOL    HW219655   1.113   3.919   5.048 -1.9596  0.4638 -0.1460
 6072SOL     OW19656   0.538   4.635   0.608 -0.4171 -0.3023 -0.2839
 6072SOL    HW119657   0.575   4.723   0.606 -1.3896  0.1177 -1.9936
 6072SOL    HW219658   0.598   4.582   0.555 -0.7844 -0.2364 -0.7763
 6073SOL     OW19659   6.536   6.141   3.443  0.0596  0.3117 -0.0727
 6073SOL    HW119660   6.590   6.131   3.521  2.0139  1.0674 -1.2668
 6073SOL    HW219661   6.550   6.060   3.394  0.3695  0.6369 -0.5274
 6074SOL     OW19662   0.417   6.037   3.322  0.0205  0.7270  0.0933
 6074SOL    HW119663   0.434   6.124   3.358  1.0441  1.1346 -1.3304
 6074SOL    HW219664   0.412   6.049   3.228  1.0068 -0.8696 -0.2172
 6075SOL     OW19665   0.001   0.030   5.174  0.1107 -0.0246 -0.1809
 6075SOL    HW119666   0.095   0.036   5.186 -0.0355  2.4523  0.2151
 6075SOL    HW219667  -0.035   0.102   5.225 -2.0767 -1.3142  0.2272
 6076SOL     OW19668   5.678   6.507  12.091 -0.5052  0.3420  0.1680
 6076SOL    HW119669   5.698   6.546  12.176  0.0098  0.8417 -0.1731
 6076SOL    HW219670   5.586   6.481  12.097 -0.9428  1.8405  0.3197
 6077SOL     OW19671   1.604   7.078   4.391 -0.7197  0.4668 -0.3014
 6077SOL    HW119672   1.686   7.121   4.416  0.2553 -0.9150 -1.0351
 6077SOL    HW219673   1.551   7.078   4.472  0.9170 -0.6654  0.8299
 6078SOL     OW19674   2.153   1.488   2.596 -0.1917  0.2644 -0.3061
 6078SOL    HW119675   2.139   1.403   2.554 -2.8306 -0.1540  1.1803
 6078SOL    HW219676   2.222   1.529   2.545  0.6661 -2.4552 -1.5317
 6079SOL     OW19677   7.786   0.021   3.976 -0.0097 -0.2829 -0.1878
 6079SOL    HW119678   7.746  -0.012   4.057  0.4885 -3.4300 -1.0685
 6079SOL    HW219679   7.716   0.015   3.911  0.5451 -1.2656 -0.7195
 6080SOL     OW19680   7.128   7.550  10.415 -0.3851 -0.6347  0.0240
 6080SOL    HW119681   7.175   7.606  10.353 -2.5341  0.3696 -0.8178
 6080SOL    HW219682   7.197   7.507  10.466  1.3861  1.5697 -0.3633
 6081SOL     OW19683   1.037   6.196   6.234 -0.2324  0.4171 -0.3546
 6081SOL    HW119684   1.065   6.119   6.284 -1.5840 -0.9751 -1.6527
 6081SOL    HW219685   1.027   6.265   6.300  1.0512 -0.4750  0.8295
 6082SOL     OW19686   7.667   6.545   3.095 -0.7473 -0.1062 -0.3260
 6082SOL    HW119687   7.659   6.461   3.049  1.2557  0.0733 -1.1162
 6082SOL    HW219688   7.612   6.605   3.045 -0.2641 -0.4025 -1.2363
 6083SOL     OW19689   6.417   6.513  11.232  0.7250  0.0631  0.2791
 6083SOL    HW119690   6.405   6.492  11.324 -4.8494  0.9299  0.1129
 6083SOL    HW219691   6.365   6.447  11.185  1.0882  1.2865 -2.0191
 6084SOL     OW19692   0.678   2.353   2.883  0.3603 -0.0572  0.4136
 6084SOL    HW119693   0.599   2.303   2.861  0.5036 -0.3783  0.6056
 6084SOL    HW219694   0.651   2.444   2.879 -0.4269 -0.1888  1.8964
 6085SOL     OW19695   5.387   6.026   6.367 -0.7019 -0.5194 -0.3493
 6085SOL    HW119696   5.417   5.943   6.328 -0.1630  0.1586 -1.4141
 6085SOL    HW219697   5.424   6.094   6.311  1.5277  0.6037  2.2813
 6086SOL     OW19698   6.423   5.213   7.754  0.4101  0.6533 -0.3582
 6086SOL    HW119699   6.445   5.306   7.759 -0.3640  0.9890 -2.3816
 6086SOL    HW219700   6.504   5.170   7.727  0.7177  0.7597  0.3887
 6087SOL     OW19701   7.269   1.764  11.720  0.1599  0.1935 -0.1679
 6087SOL    HW119702   7.198   1.771  11.656  1.7793 -1.4529 -2.2910
 6087SOL    HW219703   7.253   1.682  11.765  0.3287  0.1664 -0.1554
 6088SOL     OW19704   3.863   6.912   8.794 -0.2900  0.4040 -0.3597
 6088SOL    HW119705   3.828   6.914   8.883 -0.7373  1.6691 -0.5425
 6088SOL    HW219706   3.929   6.982   8.792 -1.0685  1.1541 -1.3073
 6089SOL     OW19707   2.916   0.712   5.402 -0.7002  0.7329 -0.0050
 6089SOL    HW119708   3.009   0.713   5.422 -0.3928 -0.6096 -1.2009
 6089SOL    HW219709   2.904   0.783   5.339 -0.4424  0.7276 -0.0604
 6090SOL     OW19710   6.812   6.914   8.955  0.6240 -0.4146  0.0913
 6090SOL    HW119711   6.824   6.957   8.870 -2.0114 -0.9751 -0.6442
 6090SOL    HW219712   6.763   6.977   9.007 -0.2684 -1.1743  0.1861
 6091SOL     OW19713   2.738   4.730   4.424 -0.1111 -0.6884  1.0807
 6091SOL    HW119714   2.811   4.705   4.367  0.4472  1.1798  0.9083
 6091SOL    HW219715   2.665   4.744   4.364  0.4814  1.2959  0.7573
 6092SOL     OW19716   4.041   0.436   4.858  0.7070  0.6294 -0.1087
 6092SOL    HW119717   4.085   0.458   4.776  0.3261 -0.2559 -0.5688
 6092SOL    HW219718   3.986   0.361   4.836  0.3814  0.5573  0.8942
 6093SOL     OW19719   2.965   1.774  12.166  0.2841 -0.4963 -0.1338
 6093SOL    HW119720   2.963   1.721  12.246 -3.8972  1.1856  1.1936
 6093SOL    HW219721   2.976   1.710  12.095 -0.6165 -2.6768  1.5525
 6094SOL     OW19722   1.561   2.259   9.853  0.4680  0.3789 -0.1021
 6094SOL    HW119723   1.521   2.343   9.874  0.8738  0.0970  1.9563
 6094SOL    HW219724   1.546   2.249   9.759 -1.3196  1.8250 -0.0326
 6095SOL     OW19725   0.020   0.699   2.731 -0.2380  0.1472  0.6566
 6095SOL    HW119726   0.044   0.687   2.639 -1.5899  1.1153  0.1339
 6095SOL    HW219727  -0.075   0.686   2.733 -0.1903 -0.1625  1.9847
 6096SOL     OW19728   3.156   5.751   2.710 -0.5711 -0.0595 -0.0355
 6096SOL    HW119729   3.207   5.706   2.643  0.8205  1.6679 -0.2204
 6096SOL    HW219730   3.085   5.793   2.662  1.7278  3.1300 -0.9637
 6097SOL     OW19731   7.153   6.072   5.590 -0.8622  0.2766 -0.0430
 6097SOL    HW119732   7.083   6.132   5.614 -1.5141 -0.5144  0.0493
 6097SOL    HW219733   7.115   6.016   5.522 -0.4239 -0.3559  0.2234
 6098SOL     OW19734   1.632   4.084   9.354  0.1396 -0.1274 -0.2768
 6098SOL    HW119735   1.618   3.993   9.327  2.1353 -0.8247  0.8650
 6098SOL    HW219736   1.552   4.107   9.401  0.1248 -1.7699  0.5844
 6099SOL     OW19737   2.492   7.439   2.380  0.0266  0.7081 -0.0148
 6099SOL    HW119738   2.404   7.402   2.380  0.6138 -0.7857  0.6660
 6099SOL    HW219739   2.532   7.406   2.300  0.7238 -0.6201  0.8494
 6100SOL     OW19740   7.325   7.433   0.222 -0.0778 -0.2053  0.0630
 6100SOL    HW119741   7.279   7.515   0.204  0.4932 -0.0092 -0.5433
 6100SOL    HW219742   7.263   7.382   0.273 -0.3774  0.6698  0.6003
 6101SOL     OW19743   0.011   5.377   5.752 -0.7194  0.0468 -0.6098
 6101SOL    HW119744  -0.083   5.394   5.753 -0.2085  3.4516 -0.0875
 6101SOL    HW219745   0.027   5.325   5.831 -2.2147 -1.4141 -1.2000
 6102SOL     OW19746   7.179   6.672   6.455  0.1572 -0.4578 -0.1624
 6102SOL    HW119747   7.231   6.618   6.396  0.9387  0.2743 -0.1507
 6102SOL    HW219748   7.237   6.690   6.529 -0.6609 -0.9850  0.6312
 6103SOL     OW19749   3.782   5.982   7.558 -0.9808 -0.3594  0.3621
 6103SOL    HW119750   3.687   5.980   7.560 -1.1091 -3.2345 -1.6741
 6103SOL    HW219751   3.809   5.970   7.649 -2.5968 -1.0660  0.7672
 6104SOL     OW19752   7.570   1.825   3.581 -0.6927 -0.4631  0.7364
 6104SOL    HW119753   7.537   1.814   3.491  1.3388 -0.9015 -0.0039
 6104SOL    HW219754   7.526   1.756   3.631  0.4906 -2.3259 -0.6388
 6105SOL     OW19755   1.166   4.176   9.079  0.1136 -0.3085  0.6043
 6105SOL    HW119756   1.217   4.109   9.125  0.0852 -0.5820  0.2422
 6105SOL    HW219757   1.119   4.128   9.011 -1.6367 -0.2605  1.7338
 6106SOL     OW19758   3.220   4.395  12.209 -0.4893  0.0047 -0.2581
 6106SOL    HW119759   3.177   4.309  12.211 -2.4147  0.9154 -0.0746
 6106SOL    HW219760   3.148   4.458  12.200  0.7187  1.7037  1.1738
 6107SOL     OW19761   0.433   0.223   3.710 -0.4641 -0.3398  0.1860
 6107SOL    HW119762   0.419   0.136   3.747 -0.1239 -0.3741  0.2363
 6107SOL    HW219763   0.346   0.253   3.685 -0.6572 -0.4454  0.7253
 6108SOL     OW19764   1.621   3.254   6.271  0.2660 -0.0922  0.1044
 6108SOL    HW119765   1.676   3.282   6.344 -0.4110 -1.2785  1.1183
 6108SOL    HW219766   1.566   3.331   6.252  0.2036  0.1254  1.0909
 6109SOL     OW19767   4.620   0.476   1.295  0.2267  0.3690  0.3396
 6109SOL    HW119768   4.582   0.389   1.282 -0.4387  0.3530  2.1203
 6109SOL    HW219769   4.658   0.473   1.383 -1.2690  2.3659  1.1196
 6110SOL     OW19770   5.780   2.992   3.299  0.0004  0.6246  0.4805
 6110SOL    HW119771   5.705   3.006   3.240  0.9102  0.8835 -0.6417
 6110SOL    HW219772   5.813   2.905   3.275 -0.2495  0.2814  1.3447
 6111SOL     OW19773   0.062   6.387   3.591 -0.4800 -0.3137  0.0701
 6111SOL    HW119774  -0.004   6.451   3.619 -2.0091 -1.4147 -0.8710
 6111SOL    HW219775   0.065   6.323   3.662 -0.8413 -0.5399 -0.1113
 6112SOL     OW19776   4.108   6.412   2.159  0.3523 -0.2257 -0.2472
 6112SOL    HW119777   4.040   6.375   2.214 -0.1213  0.5975 -0.2647
 6112SOL    HW219778   4.184   6.354   2.172 -0.0653 -0.6240  0.4630
 6113SOL     OW19779   4.527   5.708   8.568  0.4132  0.3715 -0.1363
 6113SOL    HW119780   4.455   5.753   8.524  0.0889 -0.0528 -0.0429
 6113SOL    HW219781   4.604   5.731   8.516  0.0967  0.2192 -0.6797
 6114SOL     OW19782   4.681   7.314   1.024  0.3304  0.2181 -0.1723
 6114SOL    HW119783   4.752   7.329   1.086 -0.2133  0.2071  0.4712
 6114SOL    HW219784   4.655   7.402   0.995 -0.5708  0.3517  0.9669
 6115SOL     OW19785   4.683   6.341   3.462  0.0424 -0.0891 -0.2919
 6115SOL    HW119786   4.715   6.431   3.469 -0.2676  0.1364 -1.4738
 6115SOL    HW219787   4.676   6.310   3.553  4.2550 -0.4320  0.1146
 6116SOL     OW19788   1.374   2.199   1.231  0.0608 -0.1363  0.1129
 6116SOL    HW119789   1.305   2.133   1.236 -0.1103 -0.2255 -2.3780
 6116SOL    HW219790   1.442   2.166   1.291 -1.1395 -1.1329  0.9802
 6117SOL     OW19791   3.804   0.292   6.925 -0.3535 -0.3860 -0.2569
 6117SOL    HW119792   3.835   0.295   6.834  0.6388 -2.0617 -0.0078
 6117SOL    HW219793   3.844   0.213   6.961 -1.8823 -0.5182  1.2381
 6118SOL     OW19794   4.094   1.690  11.078  0.4399  0.0996  0.4055
 6118SOL    HW119795   4.042   1.645  11.145 -0.5103  0.4624 -0.0731
 6118SOL    HW219796   4.116   1.775  11.118  0.3553  0.0897  0.4743
 6119SOL     OW19797   3.402   4.176  10.329 -0.4996  0.3345 -0.3655
 6119SOL    HW119798   3.430   4.130  10.407 -0.9262 -2.1494 -1.5704
 6119SOL    HW219799   3.352   4.251  10.361  1.0543  0.5539  1.6978
 6120SOL     OW19800   2.131   0.648   1.426 -0.0448  0.1150  0.1509
 6120SOL    HW119801   2.223   0.626   1.441 -0.0100 -0.0326 -0.2554
 6120SOL    HW219802   2.095   0.572   1.381 -0.2591  0.3469 -0.0742
 6121SOL     OW19803   6.706   3.466   7.962  0.1488  0.4672 -0.1957
 6121SOL    HW119804   6.793   3.427   7.961  0.0253  0.1476  0.9907
 6121SOL    HW219805   6.718   3.550   8.006  0.3458  1.6863 -2.4258
 6122SOL     OW19806   2.267   3.844   4.372 -0.6184  0.1149  1.2621
 6122SOL    HW119807   2.307   3.925   4.341  0.5019 -0.4213  1.2558
 6122SOL    HW219808   2.173   3.860   4.366 -0.4244  0.9333  0.0160
 6123SOL     OW19809   6.347   7.287   1.179 -0.2256  0.1723 -0.6613
 6123SOL    HW119810   6.421   7.346   1.168  1.0424 -1.0551  0.7776
 6123SOL    HW219811   6.314   7.272   1.090  1.7407  0.1612 -1.4246
 6124SOL     OW19812   6.027   7.493   4.760 -0.8714 -0.0303 -0.0587
 6124SOL    HW119813   5.986   7.482   4.846 -0.5922 -0.9715 -0.0426
 6124SOL    HW219814   5.955   7.482   4.698 -0.6490 -1.7663 -0.0341
 6125SOL     OW19815   6.147   4.078   0.844 -0.2420  0.2409 -0.4478
 6125SOL    HW119816   6.061   4.083   0.884 -0.1288  2.7435 -0.3667
 6125SOL    HW219817   6.144   4.141   0.772  1.3563  0.0131 -0.7538
 6126SOL     OW19818   6.284   3.541   5.757 -0.1659  0.3079  0.3607
 6126SOL    HW119819   6.251   3.452   5.756 -0.3236  0.3644  0.0354
 6126SOL    HW219820   6.209   3.594   5.784 -0.0352  0.3297  0.6856
 6127SOL     OW19821   6.599   4.750   9.506  0.0559  0.1571  0.2711
 6127SOL    HW119822   6.606   4.674   9.448  1.9188 -0.7818  1.6342
 6127SOL    HW219823   6.679   4.800   9.489 -0.8739  1.5374 -0.1855
 6128SOL     OW19824   4.336   7.412   6.852 -0.2804 -0.3353  0.6703
 6128SOL    HW119825   4.327   7.462   6.933 -0.3363 -1.0022  1.0871
 6128SOL    HW219826   4.281   7.459   6.788 -0.9861 -0.3262  1.2716
 6129SOL     OW19827   5.038   7.017   6.872  0.1736  0.3240 -0.1645
 6129SOL    HW119828   5.024   7.103   6.831  0.0926  0.6770  0.5906
 6129SOL    HW219829   5.105   6.976   6.817 -0.3947  0.5224 -1.0281
 6130SOL     OW19830   0.478   7.778   1.580 -0.5953  0.1204  0.1892
 6130SOL    HW119831   0.428   7.817   1.508  0.9633  0.3092 -0.8360
 6130SOL    HW219832   0.543   7.844   1.603  0.6438 -0.9634 -0.0583
 6131SOL     OW19833   5.181   6.764   5.023  0.2687 -0.1541 -0.0756
 6131SOL    HW119834   5.227   6.757   4.939 -2.6774 -2.5985 -1.6891
 6131SOL    HW219835   5.184   6.857   5.044  2.5357  0.3123 -1.9967
 6132SOL     OW19836   7.717   2.117   0.063 -0.3384 -0.0857  0.2769
 6132SOL    HW119837   7.705   2.158   0.149 -1.0289  0.0465  0.1290
 6132SOL    HW219838   7.795   2.159   0.026  1.6988 -2.1223  1.9634
 6133SOL     OW19839   2.671   0.090   4.988 -0.1323  0.4073  0.0206
 6133SOL    HW119840   2.591   0.074   4.939 -0.7946 -0.7971  1.3967
 6133SOL    HW219841   2.734   0.026   4.954 -0.0262  0.7819 -0.4823
 6134SOL     OW19842   6.257   5.602   2.223 -0.0107  0.1199 -0.7050
 6134SOL    HW119843   6.325   5.658   2.186  0.3974 -0.2729 -0.5550
 6134SOL    HW219844   6.303   5.522   2.248 -0.0380  0.8054  1.7630
 6135SOL     OW19845   5.175   2.246   0.751  0.0009  0.1332 -0.2789
 6135SOL    HW119846   5.102   2.184   0.756  0.8509 -0.9430 -0.8764
 6135SOL    HW219847   5.153   2.302   0.676 -0.2916 -0.0887 -0.3616
 6136SOL     OW19848   1.774   3.862   8.646  0.2141  0.2486  0.2589
 6136SOL    HW119849   1.761   3.832   8.556  0.3409 -0.8921  0.6182
 6136SOL    HW219850   1.775   3.958   8.639 -1.2557  0.2220 -0.7590
 6137SOL     OW19851   4.357   6.731   3.474 -0.1441 -0.4416  0.6007
 6137SOL    HW119852   4.284   6.792   3.482 -0.7699 -1.3421  2.5852
 6137SOL    HW219853   4.373   6.701   3.564  0.7193 -2.5132 -0.1786
 6138SOL     OW19854   1.594   5.636  11.125 -0.6625  0.0974  0.0869
 6138SOL    HW119855   1.514   5.617  11.075 -0.9618 -2.1335  1.2534
 6138SOL    HW219856   1.563   5.681  11.204 -0.3477  2.2644 -0.9590
 6139SOL     OW19857   4.411   2.213   6.931  0.0630 -0.0012 -0.3557
 6139SOL    HW119858   4.351   2.147   6.964  0.0577  0.3319  0.3076
 6139SOL    HW219859   4.475   2.163   6.879 -0.5823 -0.3912 -0.7874
 6140SOL     OW19860   6.791   3.350   1.440 -0.3847 -0.3208 -0.7183
 6140SOL    HW119861   6.769   3.413   1.508 -0.5651 -0.6407 -0.4772
 6140SOL    HW219862   6.710   3.340   1.389 -0.7665 -1.3671  0.0617
 6141SOL     OW19863   7.769   5.801   4.564 -0.2027 -0.0785 -0.1907
 6141SOL    HW119864   7.839   5.738   4.583  1.0020  1.2419 -0.0545
 6141SOL    HW219865   7.750   5.843   4.648  0.4386  1.1178 -0.6163
 6142SOL     OW19866   5.319   6.681   6.762  0.2948  0.0100 -0.0155
 6142SOL    HW119867   5.314   6.761   6.815  0.7271  0.4300 -0.5907
 6142SOL    HW219868   5.411   6.676   6.735  0.3806 -0.9488  0.4061
 6143SOL     OW19869   7.290   0.299   8.313  0.3591 -0.4163  0.1062
 6143SOL    HW119870   7.307   0.224   8.370 -0.4767 -0.4027  0.3807
 6143SOL    HW219871   7.196   0.313   8.318  0.5772  1.1075  0.6316
 6144SOL     OW19872   6.806   7.930   2.676  0.5405 -0.4786  0.6558
 6144SOL    HW119873   6.735   7.978   2.719  0.1825 -0.4382  0.0324
 6144SOL    HW219874   6.764   7.850   2.644  0.7955 -0.4990  0.3658
 6145SOL     OW19875   7.438   1.340   9.091 -0.2395 -0.5142  0.0015
 6145SOL    HW119876   7.357   1.296   9.116  0.1297 -0.3443  1.5812
 6145SOL    HW219877   7.409   1.418   9.044 -0.9743 -0.7270  0.0928
 6146SOL     OW19878   0.817   5.606   3.037  0.0207  0.0990  0.3962
 6146SOL    HW119879   0.744   5.550   3.010  0.7534 -0.5291 -0.3398
 6146SOL    HW219880   0.788   5.644   3.120 -0.8120 -0.7589  0.5262
 6147SOL     OW19881   3.713   7.286   7.988  0.0597 -0.0130  0.2928
 6147SOL    HW119882   3.633   7.290   7.936 -0.0688  0.1210  0.4967
 6147SOL    HW219883   3.682   7.285   8.079  0.3196  1.9726  0.4546
 6148SOL     OW19884   2.376   6.596   7.472 -0.5729 -0.3500  0.4175
 6148SOL    HW119885   2.370   6.508   7.507  0.3229 -0.6061 -0.0400
 6148SOL    HW219886   2.285   6.627   7.467 -0.9008 -1.2962  0.4335
 6149SOL     OW19887   2.490   6.524   5.376  0.6229  0.2845 -0.1663
 6149SOL    HW119888   2.492   6.554   5.467  1.0856 -0.2465  0.0055
 6149SOL    HW219889   2.529   6.436   5.379  0.6130  0.2493 -0.8732
 6150SOL     OW19890   6.757   6.304   6.899  0.1258 -0.0864 -0.0584
 6150SOL    HW119891   6.680   6.289   6.845 -0.3900  1.7883  0.0991
 6150SOL    HW219892   6.810   6.366   6.849 -0.2733  1.5328  1.4613
 6151SOL     OW19893   0.442   5.820   9.413 -0.2143 -0.2161 -0.0093
 6151SOL    HW119894   0.377   5.886   9.436 -0.0109 -0.7473  2.3447
 6151SOL    HW219895   0.391   5.748   9.377 -0.8877 -0.3903  1.2466
 6152SOL     OW19896   0.738   7.733   0.849  0.3636 -0.3305 -0.1927
 6152SOL    HW119897   0.794   7.763   0.777  0.4266 -0.2526 -0.1118
 6152SOL    HW219898   0.781   7.654   0.882  0.2887 -0.4141 -0.2969
 6153SOL     OW19899   6.932   7.655   3.000  0.1110 -0.2801 -0.8768
 6153SOL    HW119900   6.910   7.606   2.921  0.7077  1.8061 -2.4062
 6153SOL    HW219901   6.876   7.616   3.068 -1.6067 -1.0883 -2.6562
 6154SOL     OW19902   4.353   5.947   9.268  0.3608  0.1650  0.2695
 6154SOL    HW119903   4.376   5.956   9.176  0.1453 -0.3551  0.1582
 6154SOL    HW219904   4.396   5.866   9.296  1.7907  1.1533  1.0721
 6155SOL     OW19905   0.882   7.043   1.938  0.1120 -0.8220 -0.1889
 6155SOL    HW119906   0.805   7.047   1.995  1.5152 -2.5336  1.9679
 6155SOL    HW219907   0.957   7.046   1.998  1.7772  0.3622 -2.1785
 6156SOL     OW19908   1.545   2.380  10.585 -0.1907 -0.1579 -0.2912
 6156SOL    HW119909   1.589   2.396  10.502 -0.0101  0.7764 -0.0290
 6156SOL    HW219910   1.611   2.402  10.651 -1.1581  1.7687  0.1155
 6157SOL     OW19911   5.688   2.245   2.733 -0.0923  0.1522 -0.0669
 6157SOL    HW119912   5.613   2.186   2.735  0.1031 -0.0803  0.5221
 6157SOL    HW219913   5.736   2.225   2.813  0.4658  0.4708 -0.3187
 6158SOL     OW19914   0.146   7.188   4.494 -0.4885  0.4721  0.0271
 6158SOL    HW119915   0.143   7.260   4.430  1.2281 -0.5501 -1.2735
 6158SOL    HW219916   0.203   7.122   4.454 -3.2113 -2.3642  0.4603
 6159SOL     OW19917   6.899   1.311   6.200 -0.1925  0.3465  0.0281
 6159SOL    HW119918   6.973   1.364   6.230  1.3262 -1.4290 -0.3270
 6159SOL    HW219919   6.829   1.329   6.263  1.0668  0.9088  1.3384
 6160SOL     OW19920   7.614   4.892   9.528 -0.0640 -0.3622  0.5136
 6160SOL    HW119921   7.527   4.906   9.490  0.4985 -3.1436 -2.2478
 6160SOL    HW219922   7.599   4.836   9.604 -0.7224 -0.6357  0.1892
 6161SOL     OW19923   6.630   3.972   8.784  0.2971 -0.0841 -0.0702
 6161SOL    HW119924   6.593   4.053   8.818  2.0374 -0.0435  1.9330
 6161SOL    HW219925   6.561   3.907   8.794 -0.2792  0.6267  0.6066
 6162SOL     OW19926   0.438   0.783   7.874 -0.5109  0.1529 -0.6175
 6162SOL    HW119927   0.364   0.832   7.909 -0.8082 -0.5178 -0.2697
 6162SOL    HW219928   0.428   0.696   7.912  0.1488 -0.0998 -1.0087
 6163SOL     OW19929   1.490   7.421   6.777  0.2511  0.0554 -0.0530
 6163SOL    HW119930   1.431   7.435   6.704  1.8089 -0.8512 -1.5564
 6163SOL    HW219931   1.515   7.509   6.805 -2.0108  0.4686  0.8687
 6164SOL     OW19932   7.233   7.787   7.801  0.1329  0.5377  0.1152
 6164SOL    HW119933   7.279   7.720   7.750 -0.5402  2.0527 -2.6259
 6164SOL    HW219934   7.303   7.846   7.831  0.5702 -0.5613  1.3970
 6165SOL     OW19935   3.278   0.638   0.569  0.0347 -0.1663 -0.4062
 6165SOL    HW119936   3.365   0.614   0.538  0.5466  0.4266  0.5372
 6165SOL    HW219937   3.236   0.554   0.589  0.4534 -0.4504 -0.7023
 6166SOL     OW19938   6.918   4.564  10.668  0.7317  0.2635  0.0048
 6166SOL    HW119939   6.862   4.637  10.640  0.4873  0.6678  1.4665
 6166SOL    HW219940   6.874   4.486  10.635 -0.4015  0.6178  0.6130
 6167SOL     OW19941   4.071   5.029   1.280 -0.4673  0.2389 -0.3265
 6167SOL    HW119942   4.160   5.050   1.251 -0.3963 -0.7361 -0.8693
 6167SOL    HW219943   4.070   5.050   1.373  0.3698  0.1600 -0.2932
 6168SOL     OW19944   0.885   2.388   1.061  0.2391 -0.0534  0.0729
 6168SOL    HW119945   0.821   2.429   1.120  1.0322 -0.3739  1.1928
 6168SOL    HW219946   0.930   2.324   1.116  0.0104 -1.4225 -1.2813
 6169SOL     OW19947   1.563   6.555   7.627  0.3388  0.1956 -0.1910
 6169SOL    HW119948   1.524   6.467   7.627  0.0243  0.3063  1.2656
 6169SOL    HW219949   1.496   6.611   7.667  0.5885  1.0865 -0.9877
 6170SOL     OW19950   5.451   7.707   1.827 -0.3622 -0.1416 -0.0567
 6170SOL    HW119951   5.506   7.774   1.869  0.5640 -0.8048 -0.1742
 6170SOL    HW219952   5.496   7.689   1.744 -1.0411 -0.3430 -0.3834
 6171SOL     OW19953   5.852   3.198   0.257 -0.2104 -0.1031  0.0771
 6171SOL    HW119954   5.842   3.254   0.181 -0.5632  1.4632  1.2183
 6171SOL    HW219955   5.808   3.246   0.328 -2.3166 -2.7248  0.7121
 6172SOL     OW19956   3.809   1.375   6.425  0.7324  0.2352 -0.5884
 6172SOL    HW119957   3.863   1.404   6.352  2.4361  0.9696  0.8781
 6172SOL    HW219958   3.719   1.381   6.393  1.4773 -0.6399 -2.9793
 6173SOL     OW19959   7.604   7.528   1.167  0.5422 -0.0409  0.1600
 6173SOL    HW119960   7.664   7.490   1.102  0.9385  1.3478 -0.3108
 6173SOL    HW219961   7.518   7.495   1.141  0.9564 -1.2491  0.2461
 6174SOL     OW19962   2.953   1.872   9.691 -0.1102 -0.5430 -0.4842
 6174SOL    HW119963   2.926   1.934   9.622  1.8968  0.9752 -0.0013
 6174SOL    HW219964   2.955   1.787   9.647 -4.0885 -0.5983 -0.8952
 6175SOL     OW19965   0.532   7.394  12.065 -0.4583  0.2920  0.1190
 6175SOL    HW119966   0.548   7.322  12.005  0.2020  1.8884 -1.7506
 6175SOL    HW219967   0.618   7.431  12.082 -0.7823  0.6615  1.0476
 6176SOL     OW19968   2.287   6.118  11.992 -0.2944  0.8601 -0.0889
 6176SOL    HW119969   2.325   6.061  11.925 -0.7304 -0.6502  0.9115
 6176SOL    HW219970   2.202   6.144  11.956 -0.1573  0.7741 -0.4850
 6177SOL     OW19971   3.178   1.508   9.374  0.0544 -0.0254  0.0717
 6177SOL    HW119972   3.166   1.414   9.388  0.1512 -0.2197 -1.0606
 6177SOL    HW219973   3.253   1.531   9.427 -1.2821 -0.1244  2.1187
 6178SOL     OW19974   0.657   0.710   1.759  0.3643 -0.0141  0.2509
 6178SOL    HW119975   0.664   0.752   1.845  0.0354 -0.3911  0.4577
 6178SOL    HW219976   0.710   0.766   1.702  0.0853  0.5819  0.5686
 6179SOL     OW19977   5.211   1.217   5.831 -0.3351  0.0291 -0.1620
 6179SOL    HW119978   5.297   1.246   5.799 -0.6929  1.5605  0.1917
 6179SOL    HW219979   5.149   1.248   5.765 -0.6459 -0.9080 -0.3214
 6180SOL     OW19980   6.290   4.554   7.561  0.6556 -0.1932  0.7849
 6180SOL    HW119981   6.301   4.648   7.551  0.3047 -0.3869 -2.6005
 6180SOL    HW219982   6.205   4.544   7.604 -1.2160  1.1083 -2.3373
 6181SOL     OW19983   7.286   5.409   0.289 -0.6502 -0.3004 -0.0378
 6181SOL    HW119984   7.233   5.488   0.303  0.4394  0.2230  1.3930
 6181SOL    HW219985   7.245   5.366   0.214 -0.4214  2.3709 -1.8560
 6182SOL     OW19986   1.941   0.469   5.180 -0.8078 -0.0179  0.2605
 6182SOL    HW119987   1.981   0.549   5.148 -0.8157 -0.1670 -0.1291
 6182SOL    HW219988   1.959   0.468   5.274  0.3023 -0.1964  0.0550
 6183SOL     OW19989   6.031   6.823   8.131  0.3114  0.3331  0.2363
 6183SOL    HW119990   5.960   6.760   8.123  0.1374  0.4236  0.9693
 6183SOL    HW219991   5.999   6.888   8.194  0.7923  0.7212  0.0926
 6184SOL     OW19992   6.227   0.864   8.786  0.0498 -0.0184  0.1857
 6184SOL    HW119993   6.247   0.953   8.758 -1.7117 -0.1644 -1.7897
 6184SOL    HW219994   6.302   0.812   8.758  0.0812  0.5052 -0.7447
 6185SOL     OW19995   2.548   7.860   2.695  0.0007 -0.2096  0.2952
 6185SOL    HW119996   2.542   7.779   2.645  0.1877 -0.3471  0.4913
 6185SOL    HW219997   2.499   7.925   2.643 -0.7619 -0.6182  0.4858
 6186SOL     OW19998   4.760   7.351   0.666  0.6760  0.3213  0.2858
 6186SOL    HW119999   4.664   7.357   0.664  0.4266 -1.4016  2.4845
 6186SOL    HW220000   4.789   7.405   0.593 -1.8320  3.5637  1.4225
 6187SOL     OW20001   5.433   4.796   8.748 -0.5254 -0.2308  0.1957
 6187SOL    HW120002   5.389   4.881   8.750 -0.3705 -0.1565  0.4445
 6187SOL    HW220003   5.494   4.802   8.674  0.1965  0.2318  0.8126
 6188SOL     OW20004   5.961   5.031   6.301 -0.2212  0.3679 -0.4074
 6188SOL    HW120005   5.989   4.961   6.241  0.4844  0.9298 -0.7541
 6188SOL    HW220006   6.025   5.028   6.373  0.4013  1.2614 -0.8985
 6189SOL     OW20007   0.268   5.426   4.965 -0.3305 -0.2737  0.0727
 6189SOL    HW120008   0.208   5.359   4.999  1.3481 -0.9747  1.8658
 6189SOL    HW220009   0.335   5.376   4.917  0.2656  0.2215  0.3710
 6190SOL     OW20010   0.508   1.385   7.148  0.0234 -0.4540  0.4630
 6190SOL    HW120011   0.434   1.439   7.121  0.2263  0.1986  1.1668
 6190SOL    HW220012   0.486   1.297   7.118 -0.6688 -0.1193 -0.0290
 6191SOL     OW20013   1.725   4.500   3.496  0.8355 -0.1886  0.1123
 6191SOL    HW120014   1.645   4.460   3.529 -0.8923  1.8127 -1.3639
 6191SOL    HW220015   1.724   4.481   3.402  2.1227 -0.1366  0.0713
 6192SOL     OW20016   6.816   1.641   7.370 -0.2292  0.0250 -0.9023
 6192SOL    HW120017   6.851   1.561   7.331 -1.6740 -0.7430 -0.7017
 6192SOL    HW220018   6.867   1.653   7.450  0.4863 -0.2773 -1.3009
 6193SOL     OW20019   6.669   7.721   6.672 -0.0317 -0.3386 -0.3914
 6193SOL    HW120020   6.756   7.760   6.678  0.7639 -1.2786 -3.6525
 6193SOL    HW220021   6.618   7.785   6.621 -0.5622 -0.8008 -0.4515
 6194SOL     OW20022   0.968   1.260   1.025 -0.1339 -0.4201  0.1853
 6194SOL    HW120023   0.972   1.261   0.929 -1.4960  1.1111  0.0954
 6194SOL    HW220024   0.989   1.170   1.049 -0.0055 -0.8965 -1.5717
 6195SOL     OW20025   3.894   3.949   0.132 -0.1179  0.2029 -0.2758
 6195SOL    HW120026   3.955   3.877   0.141  0.6440  1.0732  2.9483
 6195SOL    HW220027   3.947   4.022   0.099  0.5507  0.7492  1.8178
 6196SOL     OW20028   0.095   6.173  11.830  0.1452 -0.2849 -0.4114
 6196SOL    HW120029   0.183   6.150  11.802 -0.1011 -0.5752 -0.9668
 6196SOL    HW220030   0.072   6.250  11.777 -0.2190 -0.6710 -0.8303
 6197SOL     OW20031   5.490   2.387   3.441  0.1594  0.3955  0.2012
 6197SOL    HW120032   5.463   2.466   3.394 -0.1476  0.0416 -0.2203
 6197SOL    HW220033   5.455   2.315   3.389  1.6572 -0.0718 -0.2046
 6198SOL     OW20034   3.129   6.696   9.247 -0.0200  0.2957  0.3752
 6198SOL    HW120035   3.073   6.772   9.228 -2.4597 -1.6111 -0.5948
 6198SOL    HW220036   3.205   6.707   9.190 -1.6975  0.6097 -1.9489
 6199SOL     OW20037   6.435   0.234   3.531 -0.2384  0.5560  0.4023
 6199SOL    HW120038   6.497   0.164   3.551 -0.0018  0.8811  0.8329
 6199SOL    HW220039   6.428   0.234   3.436 -0.3814 -0.1726  0.4094
 6200SOL     OW20040   4.421   0.971   2.822  0.7195  0.7057  0.1748
 6200SOL    HW120041   4.463   0.888   2.802 -1.6900 -0.4581 -0.4943
 6200SOL    HW220042   4.327   0.952   2.818  0.0671  3.0089  1.9811
 6201SOL     OW20043   1.428   0.269   1.661 -0.3027 -0.2917 -0.7661
 6201SOL    HW120044   1.372   0.257   1.737  0.4758 -2.0123 -0.4266
 6201SOL    HW220045   1.447   0.363   1.660 -1.6034 -0.0002  0.2176
 6202SOL     OW20046   0.600   0.450   2.847  0.1319  0.0574 -0.6698
 6202SOL    HW120047   0.563   0.504   2.778  0.4606  0.0680 -0.8396
 6202SOL    HW220048   0.674   0.406   2.806 -0.0632 -0.4363 -0.5036
 6203SOL     OW20049   3.747   2.833  10.162  0.0541  0.4663  0.7367
 6203SOL    HW120050   3.660   2.872  10.170  0.3899  1.3384  0.1980
 6203SOL    HW220051   3.730   2.739  10.164 -0.9517  0.6189  0.1395
 6204SOL     OW20052   7.894   4.786   2.493  0.0945  0.1571 -0.3922
 6204SOL    HW120053   7.820   4.841   2.519  0.9610  1.2210 -0.0727
 6204SOL    HW220054   7.929   4.828   2.415  0.0860 -0.6011 -0.8115
 6205SOL     OW20055   1.772   5.949   0.018  0.1545  0.2244  0.3108
 6205SOL    HW120056   1.759   5.881  -0.048  2.0965 -1.4676  1.5234
 6205SOL    HW220057   1.726   5.915   0.096  1.6614 -0.0952  1.1110
 6206SOL     OW20058   1.800   6.242   0.597  0.4415 -0.0354  0.4390
 6206SOL    HW120059   1.872   6.298   0.566 -0.2369  0.3188 -0.5517
 6206SOL    HW220060   1.832   6.153   0.584  0.7101  0.1191 -0.0153
 6207SOL     OW20061   7.491   7.057   7.551 -0.2029 -0.2889  0.6842
 6207SOL    HW120062   7.472   7.087   7.640 -1.2369  0.1687  0.3261
 6207SOL    HW220063   7.419   7.091   7.499  1.0098  0.4726 -0.5528
 6208SOL     OW20064   2.363   7.830   5.863  0.8011  0.5736 -0.0944
 6208SOL    HW120065   2.451   7.798   5.885  1.0614 -1.2859 -3.2368
 6208SOL    HW220066   2.308   7.752   5.865 -0.3199  1.3471 -0.1889
 6209SOL     OW20067   5.411   7.151   6.591  0.0262  0.5768  0.3487
 6209SOL    HW120068   5.414   7.177   6.499  0.3322  0.4454  0.3212
 6209SOL    HW220069   5.371   7.064   6.589  1.8952 -0.3218  0.1398
 6210SOL     OW20070   6.810   6.396   8.945  0.3572 -0.2301  0.0223
 6210SOL    HW120071   6.808   6.372   8.853 -1.5263  1.4422 -0.4393
 6210SOL    HW220072   6.845   6.486   8.946 -2.9281  1.1645  0.4746
 6211SOL     OW20073   6.529   0.359   7.652 -0.2197  0.0660 -0.0267
 6211SOL    HW120074   6.556   0.319   7.569  0.7315 -0.7416  0.6456
 6211SOL    HW220075   6.554   0.451   7.644  0.7273 -0.2096 -0.2740
 6212SOL     OW20076   4.599   1.121   9.012  0.2205  0.2009 -0.3997
 6212SOL    HW120077   4.533   1.093   9.075  0.2867 -0.3508 -0.5748
 6212SOL    HW220078   4.668   1.056   9.018 -0.1697 -0.3653 -1.6814
 6213SOL     OW20079   2.359   3.162   7.647 -0.8150  0.4531 -0.0348
 6213SOL    HW120080   2.379   3.212   7.568  0.2825  1.6672  0.9684
 6213SOL    HW220081   2.264   3.149   7.644 -0.9230  1.3682 -1.0352
 6214SOL     OW20082   0.850   7.752   3.531 -0.1297 -0.6055 -0.0252
 6214SOL    HW120083   0.812   7.793   3.609  1.7403 -0.5216  0.8946
 6214SOL    HW220084   0.820   7.661   3.534 -1.1441 -0.2796  0.0501
 6215SOL     OW20085   6.459   7.337   9.593 -0.1791 -0.2987  0.0013
 6215SOL    HW120086   6.431   7.263   9.647  0.1254  0.0801  0.6841
 6215SOL    HW220087   6.448   7.414   9.649 -1.4264  0.3127 -1.0143
 6216SOL     OW20088   2.536   1.813   4.834  0.3620  0.2680  0.1505
 6216SOL    HW120089   2.464   1.755   4.859 -0.0826 -0.0869 -1.7404
 6216SOL    HW220090   2.569   1.775   4.752  0.0871  2.6080 -1.1340
 6217SOL     OW20091   0.534   6.527  10.820 -0.3254 -0.3208 -0.1150
 6217SOL    HW120092   0.448   6.562  10.794  0.6226  1.7066 -0.7271
 6217SOL    HW220093   0.513   6.458  10.883 -2.4744 -1.3657 -1.8179
 6218SOL     OW20094   0.334   4.320   5.085 -0.5309 -0.1789  0.5895
 6218SOL    HW120095   0.301   4.409   5.097  0.6649  0.2046  1.1682
 6218SOL    HW220096   0.268   4.265   5.126 -0.3019  0.5968  2.0624
 6219SOL     OW20097   4.722   3.035   1.765 -0.1993  0.4447 -0.2095
 6219SOL    HW120098   4.706   2.941   1.772 -0.4702  0.5904  1.4624
 6219SOL    HW220099   4.796   3.042   1.705  0.4503 -0.9085  0.3927
 6220SOL     OW20100   2.670   6.866   2.202 -0.5017 -0.6048 -0.2103
 6220SOL    HW120101   2.682   6.915   2.121  1.4625 -1.0376 -0.2075
 6220SOL    HW220102   2.692   6.929   2.271  0.5106 -1.0139 -0.1450
 6221SOL     OW20103   2.126   6.332   5.979 -0.1389 -0.3582  0.4498
 6221SOL    HW120104   2.145   6.238   5.973 -1.2802 -0.5633 -0.2777
 6221SOL    HW220105   2.057   6.339   6.044 -2.5565 -0.4702 -1.9320
 6222SOL     OW20106   4.824   3.736   8.170 -0.3196  0.1297  0.3673
 6222SOL    HW120107   4.849   3.647   8.194  1.3272  0.1051 -1.1856
 6222SOL    HW220108   4.880   3.792   8.224  1.6408  0.1052 -1.5118
 6223SOL     OW20109   7.843   7.185   6.626 -0.3545  0.0398 -0.5987
 6223SOL    HW120110   7.753   7.214   6.643 -0.5601 -0.3483 -1.0250
 6223SOL    HW220111   7.839   7.146   6.539  0.4108  0.8171 -0.9928
 6224SOL     OW20112   5.148   6.770  10.772 -0.1191 -0.3114 -0.3953
 6224SOL    HW120113   5.106   6.728  10.846  0.8536 -0.3468  0.1496
 6224SOL    HW220114   5.076   6.797  10.715 -0.8616 -0.4555  0.4647
 6225SOL     OW20115   3.536   7.672   7.754  0.1971  0.2628 -0.3272
 6225SOL    HW120116   3.513   7.585   7.722 -1.3760  0.0747  1.1454
 6225SOL    HW220117   3.574   7.656   7.840 -1.1892  1.0523  0.4726
 6226SOL     OW20118   0.521   6.117  11.910  1.0330 -0.0668 -0.1475
 6226SOL    HW120119   0.605   6.095  11.949 -0.0112  0.4368  2.6457
 6226SOL    HW220120   0.456   6.085  11.973 -0.7942  1.5987 -1.0636
 6227SOL     OW20121   0.231   1.450   1.463 -0.0960 -0.2515 -0.0478
 6227SOL    HW120122   0.228   1.358   1.437  2.1935 -0.1953 -0.7679
 6227SOL    HW220123   0.153   1.489   1.423 -1.7324 -2.0490  1.2372
 6228SOL     OW20124   1.102   3.961   2.455 -0.0815  0.0374  0.0878
 6228SOL    HW120125   1.153   3.881   2.442  0.8181  0.6224 -0.0781
 6228SOL    HW220126   1.014   3.930   2.479 -0.1575 -1.0120 -1.4144
 6229SOL     OW20127   3.128   3.686   7.350 -0.7391  0.1440 -0.5128
 6229SOL    HW120128   3.186   3.637   7.292 -0.8630 -1.5549  0.7297
 6229SOL    HW220129   3.186   3.731   7.411 -0.6670  0.2698 -0.6745
 6230SOL     OW20130   2.684   0.095   9.240  0.4006 -0.1050  0.5890
 6230SOL    HW120131   2.675   0.190   9.229 -0.1090 -0.0873  1.0627
 6230SOL    HW220132   2.778   0.078   9.232  0.4675  0.4059  0.2608
 6231SOL     OW20133   3.504   7.133   1.190  0.1333 -0.3084  0.4593
 6231SOL    HW120134   3.495   7.084   1.108  0.0928  0.8819 -0.2699
 6231SOL    HW220135   3.457   7.081   1.255 -1.9887 -0.0482 -0.7994
 6232SOL     OW20136   4.456   5.072   9.270  0.1919  0.5029  0.3173
 6232SOL    HW120137   4.412   4.988   9.275  0.1325  0.6057  2.0683
 6232SOL    HW220138   4.412   5.117   9.197 -0.7634 -0.4122  0.2984
 6233SOL     OW20139   2.366   1.769  12.404  0.7037  0.2603  0.2036
 6233SOL    HW120140   2.418   1.803  12.332  0.5007 -1.1730 -0.6686
 6233SOL    HW220141   2.301   1.837  12.422  1.3222  1.0108 -0.3655
 6234SOL     OW20142   0.824   7.457   9.771  0.4959 -0.0239 -0.1751
 6234SOL    HW120143   0.764   7.383   9.767  0.0296  0.2116  1.5660
 6234SOL    HW220144   0.910   7.417   9.783  0.5155 -0.3168 -1.2081
 6235SOL     OW20145   5.060   4.243   9.616  0.1256  0.3631  0.0823
 6235SOL    HW120146   4.971   4.208   9.624 -0.8592  2.9215  1.2204
 6235SOL    HW220147   5.084   4.227   9.524 -0.4983 -2.4625  0.3042
 6236SOL     OW20148   7.658   6.615  10.464 -0.0163  0.5432 -0.2896
 6236SOL    HW120149   7.610   6.658  10.392 -0.0469  3.1359  1.1347
 6236SOL    HW220150   7.750   6.625  10.440 -0.0527  0.2548 -0.5589
 6237SOL     OW20151   2.077   0.743  11.361 -0.1824 -0.1746 -0.1930
 6237SOL    HW120152   2.044   0.667  11.410 -0.6779  0.5534  0.6314
 6237SOL    HW220153   2.036   0.736  11.275  0.6128 -1.4163 -0.5097
 6238SOL     OW20154   4.686   0.225   5.257  0.9087  0.5132 -0.7584
 6238SOL    HW120155   4.645   0.192   5.177 -0.2395 -0.7910  0.3120
 6238SOL    HW220156   4.700   0.318   5.240  0.2412  0.3639 -2.2867
 6239SOL     OW20157   3.741   3.879  12.076 -0.2399  0.0492  0.1218
 6239SOL    HW120158   3.672   3.813  12.075 -0.1582 -0.0620  0.9676
 6239SOL    HW220159   3.817   3.834  12.114 -0.3932  0.8147  1.4213
 6240SOL     OW20160   7.549   0.104   0.508 -0.3135  0.1034  0.4048
 6240SOL    HW120161   7.499   0.183   0.486 -0.9699 -0.2748  0.5018
 6240SOL    HW220162   7.485   0.033   0.503  0.7485 -0.7823 -2.0152
 6241SOL     OW20163   4.839   7.087  11.807 -0.3237  0.3276 -0.1988
 6241SOL    HW120164   4.929   7.065  11.831  0.0971 -1.5709 -2.9983
 6241SOL    HW220165   4.848   7.159  11.745 -0.6597 -0.2533 -0.9347
 6242SOL     OW20166   6.582   0.716   9.308 -0.1388  0.1260 -0.6452
 6242SOL    HW120167   6.576   0.755   9.396 -1.9700  1.1414 -1.1617
 6242SOL    HW220168   6.494   0.683   9.290  0.4610 -0.9625 -1.7215
 6243SOL     OW20169   1.790   7.821   7.150 -0.5794 -0.3631  0.2264
 6243SOL    HW120170   1.694   7.824   7.144 -0.6587 -2.5939 -0.2101
 6243SOL    HW220171   1.815   7.744   7.101  1.4857  0.2156  0.2831
 6244SOL     OW20172   6.903   2.416   3.832 -0.2011 -0.1850  0.2365
 6244SOL    HW120173   6.923   2.337   3.781  1.4680  0.4277 -0.1389
 6244SOL    HW220174   6.816   2.400   3.869 -0.4572 -1.6276 -0.9105
 6245SOL     OW20175   0.395   1.568   2.406  0.1023 -0.1335  0.0198
 6245SOL    HW120176   0.302   1.550   2.401 -0.0045 -0.1295  1.4262
 6245SOL    HW220177   0.437   1.487   2.376 -0.3624 -0.5774  0.5378
 6246SOL     OW20178   6.207   1.131   0.749  0.3519  0.0422  0.4533
 6246SOL    HW120179   6.269   1.199   0.722  1.7224 -0.9992  0.9228
 6246SOL    HW220180   6.258   1.050   0.751 -0.9926 -0.8297  0.9663
 6247SOL     OW20181   3.052   5.641  11.687  0.0072 -0.5053 -0.2136
 6247SOL    HW120182   2.999   5.703  11.636  0.8647 -0.8949 -1.6501
 6247SOL    HW220183   3.045   5.671  11.777 -0.9095  0.7125 -0.6692
 6248SOL     OW20184   3.033   0.453   3.985  0.3711 -0.2920  0.0950
 6248SOL    HW120185   3.042   0.394   3.910 -0.6789 -1.3094  0.7248
 6248SOL    HW220186   3.078   0.533   3.959 -1.4240  0.0575 -2.3558
 6249SOL     OW20187   6.786   4.677   1.252  0.0074 -0.0870 -0.2229
 6249SOL    HW120188   6.700   4.710   1.277 -0.2712 -0.8746 -0.1081
 6249SOL    HW220189   6.846   4.717   1.315 -0.0185  1.8178 -1.3335
 6250SOL     OW20190   3.614   0.568   9.438 -0.2088  0.1290  0.2751
 6250SOL    HW120191   3.699   0.542   9.474 -0.6501  1.3586  2.3506
 6250SOL    HW220192   3.632   0.649   9.390 -0.3105  0.8062  1.3578
 6251SOL     OW20193   6.304   6.321   4.997  0.5432 -0.1283 -0.2186
 6251SOL    HW120194   6.290   6.369   5.078 -1.8790 -0.3826 -0.4174
 6251SOL    HW220195   6.387   6.355   4.963  0.5618  1.4740  1.2960
 6252SOL     OW20196   4.494   4.763   8.728  0.1288 -0.0659  0.2337
 6252SOL    HW120197   4.476   4.856   8.713 -0.4790 -0.2747 -0.4086
 6252SOL    HW220198   4.509   4.727   8.640  0.7375 -0.5006  0.5129
 6253SOL     OW20199   4.594   5.400  11.426 -0.1083  0.4876  0.1585
 6253SOL    HW120200   4.613   5.481  11.378 -1.3434  0.2682 -0.7667
 6253SOL    HW220201   4.501   5.407  11.448 -0.2733 -0.7625 -0.0977
 6254SOL     OW20202   7.758   2.347   7.653  0.0736 -0.2052 -0.6694
 6254SOL    HW120203   7.809   2.333   7.732 -1.9744  2.6961  1.3774
 6254SOL    HW220204   7.819   2.386   7.591  1.1726 -0.3158  0.3179
 6255SOL     OW20205   6.996   5.702   5.687  0.0753 -0.1563 -0.0092
 6255SOL    HW120206   7.025   5.618   5.651 -1.5084 -0.7359  0.0230
 6255SOL    HW220207   6.927   5.731   5.628 -0.0985  0.6212  0.5658
 6256SOL     OW20208   7.363   7.260   8.159  0.5900  0.2384 -0.0423
 6256SOL    HW120209   7.361   7.203   8.083  1.0909 -1.1105  0.9102
 6256SOL    HW220210   7.328   7.207   8.230 -0.1541  1.5664  0.6158
 6257SOL     OW20211   0.328   7.784  10.791 -0.6982 -0.7014  0.8164
 6257SOL    HW120212   0.390   7.730  10.743 -1.3534  0.9053 -2.0986
 6257SOL    HW220213   0.381   7.827  10.859  0.7214 -1.5637  0.2926
 6258SOL     OW20214   2.078   6.255   8.053 -0.2110 -0.0467 -0.0928
 6258SOL    HW120215   2.006   6.196   8.077  0.5241 -0.8950  0.0543
 6258SOL    HW220216   2.156   6.200   8.053  0.7037  1.1771  1.2252
 6259SOL     OW20217   1.574   3.959   7.806  0.0147  0.1171 -0.1841
 6259SOL    HW120218   1.635   3.940   7.877 -0.2849 -3.0274 -0.6224
 6259SOL    HW220219   1.608   3.909   7.731 -1.6227  0.4438 -1.1948
 6260SOL     OW20220   6.068   0.153  10.525  0.3097 -0.1538  0.7468
 6260SOL    HW120221   5.984   0.145  10.481  0.0822 -1.2757  1.3469
 6260SOL    HW220222   6.100   0.063  10.532  1.1612  0.1763  1.3038
 6261SOL     OW20223   0.561   4.864   7.558  0.2992 -0.7424 -0.6416
 6261SOL    HW120224   0.577   4.771   7.575 -0.6493 -0.5300  1.8683
 6261SOL    HW220225   0.549   4.903   7.645 -2.1656  1.1735 -1.6888
 6262SOL     OW20226   0.187   1.654   6.393  0.1711  0.2311 -0.4973
 6262SOL    HW120227   0.226   1.720   6.451 -1.3265 -0.4711  1.4205
 6262SOL    HW220228   0.101   1.690   6.370 -0.2100 -0.5484 -0.3300
 6263SOL     OW20229   2.212   3.662   7.215  0.6409  0.0895  0.0078
 6263SOL    HW120230   2.288   3.655   7.272  0.3620  0.1765  0.3964
 6263SOL    HW220231   2.140   3.687   7.273  0.7542  2.2019 -0.6835
 6264SOL     OW20232   3.789   3.032   4.791 -0.1614 -0.1622  0.3735
 6264SOL    HW120233   3.816   3.115   4.832 -0.7145  0.8816 -1.2700
 6264SOL    HW220234   3.868   2.978   4.792  0.4510  0.7112  0.6952
 6265SOL     OW20235   4.737   5.187   1.407 -0.0156 -0.2382 -0.1535
 6265SOL    HW120236   4.811   5.168   1.350  0.3375 -0.0703  0.2479
 6265SOL    HW220237   4.763   5.154   1.493 -0.4407 -0.2562 -0.0270
 6266SOL     OW20238   1.584   3.102  10.610 -0.8846 -0.6045  0.5378
 6266SOL    HW120239   1.522   3.054  10.665 -1.0579 -2.6118 -1.2692
 6266SOL    HW220240   1.530   3.140  10.540 -0.5214  0.9000  1.0417
 6267SOL     OW20241   3.042   3.212  10.167 -0.3204  0.0483 -0.3941
 6267SOL    HW120242   2.959   3.228  10.123  0.2775  1.1468 -1.1587
 6267SOL    HW220243   3.108   3.247  10.107  0.9373 -3.0329 -1.0198
 6268SOL     OW20244   5.924   6.127   9.416  0.0415 -0.0956  0.7460
 6268SOL    HW120245   6.019   6.125   9.429  0.0379 -0.0734  0.7738
 6268SOL    HW220246   5.904   6.218   9.392  0.5232 -0.7609 -2.8706
 6269SOL     OW20247   1.279   1.690  10.672  0.3348  0.1971  0.6925
 6269SOL    HW120248   1.212   1.622  10.663 -1.0068  1.5964 -0.3778
 6269SOL    HW220249   1.264   1.727  10.759 -0.9872  1.1474  0.1040
 6270SOL     OW20250   4.147   3.787   8.321  0.5446 -0.3959 -0.2141
 6270SOL    HW120251   4.076   3.744   8.273  0.4035  0.0019 -0.3616
 6270SOL    HW220252   4.186   3.847   8.258  1.9248 -1.6089 -0.5629
 6271SOL     OW20253   2.146   4.180   9.830 -0.1466  0.4427 -0.0127
 6271SOL    HW120254   2.051   4.181   9.818 -0.5213  0.3661  2.3470
 6271SOL    HW220255   2.165   4.261   9.878  0.4767 -0.9591  2.2645
 6272SOL     OW20256   7.785   0.769  12.111  0.4778  0.0215 -0.1238
 6272SOL    HW120257   7.717   0.836  12.110  1.0627  0.6434  0.2418
 6272SOL    HW220258   7.858   0.809  12.064  0.7714 -0.4266 -0.0538
 6273SOL     OW20259   6.487   4.313   4.894 -0.1348 -0.3708  0.1943
 6273SOL    HW120260   6.429   4.270   4.831 -0.1137 -1.9382  1.1849
 6273SOL    HW220261   6.575   4.284   4.870 -0.1415 -1.1075  1.0129
 6274SOL     OW20262   0.183   5.962   1.041  0.9074 -0.2784 -0.3347
 6274SOL    HW120263   0.254   5.991   0.983  1.3982 -1.6155 -0.4249
 6274SOL    HW220264   0.224   5.898   1.099 -0.1915 -0.9536 -0.2737
 6275SOL     OW20265   5.742   3.847   7.107  0.2501 -0.0263  0.4800
 6275SOL    HW120266   5.795   3.907   7.159 -0.3587  0.2835  0.7515
 6275SOL    HW220267   5.699   3.791   7.172 -1.8463  1.4476  0.4564
 6276SOL     OW20268   7.905   4.405  12.430 -0.1416  0.0443 -0.6056
 6276SOL    HW120269   7.812   4.424  12.425  0.0242  0.8909 -0.6434
 6276SOL    HW220270   7.913   4.314  12.402 -1.1348 -0.5773  1.0025
 6277SOL     OW20271   7.205   6.342  11.491  0.5671  0.4313  0.4056
 6277SOL    HW120272   7.287   6.331  11.540  1.1067 -1.9565 -0.8983
 6277SOL    HW220273   7.150   6.269  11.520 -0.4056  0.9642 -0.0775
 6278SOL     OW20274   3.214   0.795  10.704 -0.0521 -0.5223 -0.3216
 6278SOL    HW120275   3.258   0.823  10.623  0.2836  0.9799  0.3430
 6278SOL    HW220276   3.182   0.707  10.684  3.2156 -1.7274 -0.8581
 6279SOL     OW20277   6.258   3.505   5.299  0.2910 -0.2641  0.7655
 6279SOL    HW120278   6.303   3.557   5.365  1.7040  1.1426 -1.1746
 6279SOL    HW220279   6.301   3.420   5.300 -0.9555 -0.9385  2.8539
 6280SOL     OW20280   6.598   3.667  10.749  1.1132 -0.4847 -0.3132
 6280SOL    HW120281   6.618   3.621  10.668 -2.8098 -1.7914 -0.7245
 6280SOL    HW220282   6.587   3.759  10.722  0.2812 -0.8312 -1.2422
 6281SOL     OW20283   7.063   6.230   3.744  0.3820 -0.1917 -0.1592
 6281SOL    HW120284   7.085   6.179   3.667 -1.1093 -0.6151 -0.3350
 6281SOL    HW220285   7.088   6.320   3.721 -0.9497 -0.1384 -1.5474
 6282SOL     OW20286   3.950   1.496   8.822  0.7187 -0.2536  0.0181
 6282SOL    HW120287   3.893   1.420   8.827 -0.0389  0.2070 -1.1392
 6282SOL    HW220288   4.038   1.460   8.820  0.4874 -0.9879  1.4990
 6283SOL     OW20289   5.054   2.950  12.125  0.0847  0.1577 -0.1241
 6283SOL    HW120290   4.969   2.933  12.164  0.0339 -1.2719 -0.7981
 6283SOL    HW220291   5.059   3.045  12.117 -0.9837  0.3164  0.9080
 6284SOL     OW20292   3.553   0.962   8.409  0.0848 -0.6726  0.4584
 6284SOL    HW120293   3.566   0.913   8.490 -0.4328 -2.7824 -0.6712
 6284SOL    HW220294   3.526   0.897   8.344  1.0140  0.8279 -1.5817
 6285SOL     OW20295   4.690   2.890   3.750  0.2382 -0.0817 -0.3362
 6285SOL    HW120296   4.668   2.983   3.752  0.8773  0.0653  1.4459
 6285SOL    HW220297   4.780   2.887   3.719  0.6705  0.0056  0.8938
 6286SOL     OW20298   3.349   4.607   2.175 -0.6693  0.2796  0.0962
 6286SOL    HW120299   3.438   4.603   2.210  0.0788  0.5412 -1.6797
 6286SOL    HW220300   3.303   4.534   2.217  0.2447  0.3911  1.3376
 6287SOL     OW20301   6.657   3.895   0.042  0.0780  0.0350 -0.5723
 6287SOL    HW120302   6.731   3.870  -0.013  1.1063 -0.5527  1.0081
 6287SOL    HW220303   6.646   3.822   0.102 -0.1873  1.1538  0.8012
 6288SOL     OW20304   6.362   0.039  10.672  0.2104  0.2822  0.0179
 6288SOL    HW120305   6.454   0.012  10.667  0.2182 -0.0854  1.6485
 6288SOL    HW220306   6.317  -0.019  10.611  1.1791  1.1995 -1.6503
 6289SOL     OW20307   6.296   3.281   1.866  0.4394  0.0101  0.1678
 6289SOL    HW120308   6.201   3.288   1.872  0.5491  0.4846  3.2364
 6289SOL    HW220309   6.316   3.195   1.902  1.1678 -0.3797 -1.1145
 6290SOL     OW20310   3.923   7.271   5.173 -0.2504  0.1184 -0.1750
 6290SOL    HW120311   3.937   7.364   5.160 -2.6596  0.2120 -3.3929
 6290SOL    HW220312   4.008   7.237   5.199  1.3420  2.8383 -1.4158
 6291SOL     OW20313   5.227   5.809  11.794  0.1322 -0.0117  0.1897
 6291SOL    HW120314   5.153   5.851  11.750  1.0841  1.1979 -0.3320
 6291SOL    HW220315   5.233   5.723  11.753 -0.8373 -0.0378  0.0761
 6292SOL     OW20316   6.745   4.821   5.964 -0.2431  0.3154  0.1917
 6292SOL    HW120317   6.823   4.774   5.992 -0.7889 -0.0941  1.0839
 6292SOL    HW220318   6.753   4.908   6.002  0.4892  0.7795 -0.9772
 6293SOL     OW20319   3.301   1.965   3.261  0.4669  0.5041  0.2166
 6293SOL    HW120320   3.236   1.911   3.216 -0.5756  0.7284  1.4010
 6293SOL    HW220321   3.377   1.964   3.203 -0.4777 -0.0162 -1.0587
 6294SOL     OW20322   3.556   0.844  10.737 -0.1180  0.0788 -0.4726
 6294SOL    HW120323   3.628   0.898  10.704 -1.2162  1.8632 -0.0145
 6294SOL    HW220324   3.507   0.819  10.658 -1.7610  2.9416 -0.4750
 6295SOL     OW20325   0.780   0.143   1.030  0.2419 -0.3892 -0.0892
 6295SOL    HW120326   0.824   0.085   0.968  0.9289  0.8588 -0.8021
 6295SOL    HW220327   0.839   0.146   1.106 -0.7880 -2.2312  0.8388
 6296SOL     OW20328   4.572   7.147   4.626 -0.3346  0.4409 -0.0935
 6296SOL    HW120329   4.483   7.120   4.645  0.1899  0.1441  2.1546
 6296SOL    HW220330   4.595   7.099   4.546 -2.0036  0.1565 -0.4292
 6297SOL     OW20331   4.880   0.999  11.187  0.0813  0.2825 -0.1075
 6297SOL    HW120332   4.910   1.074  11.238 -2.5902 -0.3101  2.5821
 6297SOL    HW220333   4.787   0.991  11.208  0.3298 -4.0872  0.2209
 6298SOL     OW20334   0.051   3.209  10.315  0.5366  0.1878 -0.4300
 6298SOL    HW120335   0.093   3.164  10.242  0.1844 -0.8675  0.0049
 6298SOL    HW220336  -0.003   3.276  10.274 -0.9020 -1.4123 -1.2672
 6299SOL     OW20337   7.696   4.825   5.349 -0.1082 -0.4703 -0.0144
 6299SOL    HW120338   7.633   4.824   5.421 -2.4238 -0.5972 -1.9428
 6299SOL    HW220339   7.656   4.880   5.282  2.0186 -0.2570 -1.2118
 6300SOL     OW20340   3.302   5.853   0.148  0.8783  0.2667  0.0726
 6300SOL    HW120341   3.220   5.853   0.098 -0.0493  1.4512  1.5249
 6300SOL    HW220342   3.357   5.789   0.103 -0.5265  0.0589 -1.4427
 6301SOL     OW20343   4.479   1.762   4.285  0.2207 -0.2315 -0.1820
 6301SOL    HW120344   4.482   1.710   4.365 -0.9110  0.5967  0.4239
 6301SOL    HW220345   4.537   1.836   4.301  0.7847 -0.5977 -0.5236
 6302SOL     OW20346   6.113   3.603   1.183  0.1068 -0.8614  0.0609
 6302SOL    HW120347   6.160   3.598   1.266  2.1866  1.5048 -0.8576
 6302SOL    HW220348   6.176   3.574   1.117 -1.4024 -2.3977 -0.7814
 6303SOL     OW20349   4.191   2.414  12.046 -0.2009  0.1792  0.3676
 6303SOL    HW120350   4.223   2.350  11.983  1.7959  0.9487  0.5188
 6303SOL    HW220351   4.148   2.362  12.114 -0.2331 -0.8303 -0.4082
 6304SOL     OW20352   7.621   1.033   2.845 -0.1310  0.0879 -0.2550
 6304SOL    HW120353   7.573   1.110   2.877  0.9597  1.0718 -0.9128
 6304SOL    HW220354   7.568   1.001   2.772 -0.0508  0.8689 -0.6674
 6305SOL     OW20355   6.430   4.741   4.316 -0.3252  0.1741  0.1952
 6305SOL    HW120356   6.435   4.646   4.312 -0.9222  0.1484 -0.0712
 6305SOL    HW220357   6.518   4.769   4.343 -0.3195 -0.4759  0.8610
 6306SOL     OW20358   2.833   3.723   1.416  0.8162  0.3804 -0.0753
 6306SOL    HW120359   2.918   3.716   1.373  0.6550  0.3525 -0.3853
 6306SOL    HW220360   2.811   3.633   1.442 -0.0126  0.0816 -1.7029
 6307SOL     OW20361   5.036   5.917  10.931  0.2319  0.2014 -0.1193
 6307SOL    HW120362   5.089   5.865  10.991 -0.5952  0.2806  0.6936
 6307SOL    HW220363   5.034   5.865  10.850  1.4741  0.1634 -0.1367
 6308SOL     OW20364   0.877   4.120   0.993 -0.0130 -0.1488  0.0256
 6308SOL    HW120365   0.840   4.083   0.913  2.2530 -0.4056 -0.9777
 6308SOL    HW220366   0.919   4.045   1.036 -1.5305 -0.0978  1.7039
 6309SOL     OW20367   7.915   7.810   8.873  0.1169 -0.3377 -0.3811
 6309SOL    HW120368   7.971   7.886   8.859 -1.0014  0.5411 -0.1632
 6309SOL    HW220369   7.884   7.786   8.785 -1.2594  0.8151 -0.2318
 6310SOL     OW20370   2.936   3.462   5.928 -0.1410 -0.0757 -0.0295
 6310SOL    HW120371   3.014   3.511   5.953 -0.3539 -0.1847  0.8796
 6310SOL    HW220372   2.905   3.423   6.009 -1.3820  0.3062 -0.2936
 6311SOL     OW20373   0.874   6.065   3.082 -0.0840  0.0081 -0.5055
 6311SOL    HW120374   0.908   6.124   3.150 -0.6774  0.2224 -0.3891
 6311SOL    HW220375   0.935   5.991   3.082  0.3718  0.3801 -0.2925
 6312SOL     OW20376   1.195   3.716  10.121  0.3634 -0.2833 -0.4373
 6312SOL    HW120377   1.155   3.801  10.141 -0.8062 -1.0705  0.6300
 6312SOL    HW220378   1.189   3.666  10.202 -0.3945 -1.9588 -1.4694
 6313SOL     OW20379   5.924   1.593   1.725  0.0597 -0.3727  0.5654
 6313SOL    HW120380   5.992   1.614   1.789 -1.5507  1.0263  1.9385
 6313SOL    HW220381   5.931   1.498   1.712  0.8819 -0.5937  2.3233
 6314SOL     OW20382   7.280   7.902   1.811 -0.2479  0.5465  0.2636
 6314SOL    HW120383   7.340   7.973   1.788 -0.6547  0.2843 -1.7648
 6314SOL    HW220384   7.323   7.823   1.778 -0.9409  0.1529  0.2898
 6315SOL     OW20385   6.072   5.175   9.298 -0.5524  0.1119  0.0161
 6315SOL    HW120386   6.079   5.242   9.229 -0.6562  0.0811 -0.0248
 6315SOL    HW220387   6.051   5.225   9.377  0.4442  0.2382  0.2110
 6316SOL     OW20388   0.048   4.974   9.152 -0.3802 -0.1866 -0.0285
 6316SOL    HW120389   0.119   4.924   9.111 -0.4288  0.1814 -0.5779
 6316SOL    HW220390   0.020   4.920   9.226  0.4276 -0.3657  0.1596
 6317SOL     OW20391   7.518   4.009   8.655 -0.2787 -0.0406  0.2405
 6317SOL    HW120392   7.476   3.937   8.702  1.3553 -0.3119  1.4052
 6317SOL    HW220393   7.577   4.048   8.720 -0.0737  1.4447 -0.7876
 6318SOL     OW20394   0.847   7.044   8.730  0.6433 -0.5209  0.2386
 6318SOL    HW120395   0.763   6.998   8.741  0.2553 -0.1780 -1.1008
 6318SOL    HW220396   0.857   7.093   8.811 -0.9471  0.1795  0.0576
 6319SOL     OW20397   1.194   7.791   3.045  0.6126  0.0212 -0.4423
 6319SOL    HW120398   1.119   7.733   3.055 -0.3277  1.3664  0.7179
 6319SOL    HW220399   1.230   7.799   3.133  1.8264 -0.1947 -0.8947
 6320SOL     OW20400   4.778   0.838   7.599 -0.0485 -0.1563 -0.3844
 6320SOL    HW120401   4.818   0.755   7.573  0.6425  0.4525 -1.3859
 6320SOL    HW220402   4.836   0.904   7.561 -1.4210  0.7757 -0.9362
 6321SOL     OW20403   5.297   7.818   0.192 -0.5484  0.0131  0.1629
 6321SOL    HW120404   5.323   7.898   0.239 -1.1871  0.2947  0.0517
 6321SOL    HW220405   5.349   7.819   0.112  0.2416 -0.2506  0.6636
 6322SOL     OW20406   1.243   1.344  11.231  0.1381  0.2895 -0.3012
 6322SOL    HW120407   1.282   1.257  11.226 -2.2709 -0.8904  0.1374
 6322SOL    HW220408   1.159   1.336  11.186 -0.6348  2.0801  0.7055
 6323SOL     OW20409   1.379   0.389   5.466  0.7570  0.3190  0.2017
 6323SOL    HW120410   1.397   0.296   5.482  0.1455  0.1993  0.2210
 6323SOL    HW220411   1.310   0.411   5.529  0.2014  0.5294 -0.4727
 6324SOL     OW20412   0.445   5.723  10.536  0.5411 -0.8208  0.0452
 6324SOL    HW120413   0.403   5.649  10.579  0.8489 -0.7239  0.5192
 6324SOL    HW220414   0.536   5.695  10.523  0.3574 -1.0071 -0.9171
 6325SOL     OW20415   2.352   0.390   3.080  0.6446 -1.1065  0.1423
 6325SOL    HW120416   2.323   0.301   3.098  0.5921 -0.7219  2.2039
 6325SOL    HW220417   2.277   0.432   3.038 -0.1423 -1.4356  1.1690
 6326SOL     OW20418   3.370   4.469   3.106  0.2373 -0.1869 -0.3062
 6326SOL    HW120419   3.389   4.384   3.067 -2.8431 -0.8833 -0.5396
 6326SOL    HW220420   3.364   4.452   3.200 -2.0737 -0.7283 -0.4741
 6327SOL     OW20421   7.371   1.426   3.864  0.1266 -0.3789 -0.1860
 6327SOL    HW120422   7.354   1.413   3.957 -3.4371  0.1864 -0.6111
 6327SOL    HW220423   7.399   1.340   3.833 -0.4287 -1.0541  1.0868
 6328SOL     OW20424   0.843   4.788   1.784  0.0248  0.0349 -0.6519
 6328SOL    HW120425   0.837   4.878   1.753 -0.6353  0.9254  1.9072
 6328SOL    HW220426   0.891   4.743   1.714 -0.8880  1.9943 -2.6660
 6329SOL     OW20427   5.740   5.607   8.516 -0.1749  0.2767  0.0165
 6329SOL    HW120428   5.713   5.578   8.429 -0.4240 -0.3698  0.3020
 6329SOL    HW220429   5.814   5.550   8.538 -1.9073 -1.5939  1.4136
 6330SOL     OW20430   5.095   1.233   2.018  0.3587 -0.1536 -0.9395
 6330SOL    HW120431   5.086   1.291   2.094 -1.3715  1.7550 -2.5048
 6330SOL    HW220432   5.153   1.163   2.049  0.9642  1.3484  1.6504
 6331SOL     OW20433   4.026   6.410  10.522  0.3135 -1.0809  0.0215
 6331SOL    HW120434   4.105   6.447  10.560  0.4800 -1.1098 -0.2978
 6331SOL    HW220435   4.023   6.444  10.432 -0.0842 -1.0054  0.0582
 6332SOL     OW20436   1.790   4.392  10.995 -0.4442 -0.0741  0.1140
 6332SOL    HW120437   1.746   4.427  11.073  0.1972  0.6515  0.1582
 6332SOL    HW220438   1.794   4.466  10.934 -0.0779 -0.3778 -0.2374
 6333SOL     OW20439   2.314   4.666   9.936 -0.0518  0.6284  0.0248
 6333SOL    HW120440   2.252   4.593   9.950  1.3778 -0.9269 -1.4097
 6333SOL    HW220441   2.292   4.728  10.006 -1.8360 -0.8103  0.8515
 6334SOL     OW20442   2.261   4.652   8.055 -0.1925  0.1520  0.1292
 6334SOL    HW120443   2.332   4.595   8.025 -0.2726 -0.4736  1.0711
 6334SOL    HW220444   2.195   4.647   7.986  1.7805  3.0120 -2.2122
 6335SOL     OW20445   5.725   1.566   9.538  0.2085 -0.0467  0.6608
 6335SOL    HW120446   5.724   1.483   9.490 -0.9291 -0.4392  1.3053
 6335SOL    HW220447   5.814   1.574   9.571  0.5344 -0.6393 -0.0488
 6336SOL     OW20448   0.173   3.076   1.886  0.8347  0.1342  0.0265
 6336SOL    HW120449   0.172   2.985   1.854 -0.5839  1.5651 -4.9301
 6336SOL    HW220450   0.262   3.106   1.867  0.9981  0.1066  0.7198
 6337SOL     OW20451   7.914   0.122   7.098 -0.3270  0.4381  0.3677
 6337SOL    HW120452   7.948   0.143   7.185 -1.9700  1.2244  0.8564
 6337SOL    HW220453   7.962   0.180   7.039 -1.4294  2.2435  1.1571
 6338SOL     OW20454   5.797   6.381  11.471 -0.1993 -0.5567 -0.7394
 6338SOL    HW120455   5.835   6.300  11.506 -2.4005 -1.0257  0.7753
 6338SOL    HW220456   5.761   6.355  11.386  0.1827 -0.8335 -0.8229
 6339SOL     OW20457   6.285   1.134   6.908 -0.0552 -0.1719  0.1788
 6339SOL    HW120458   6.253   1.084   6.984  0.9784 -0.0303  0.7152
 6339SOL    HW220459   6.377   1.109   6.900  0.2646  1.0458 -0.0360
 6340SOL     OW20460   5.225   6.265   0.531  0.0440 -0.4662  0.0696
 6340SOL    HW120461   5.182   6.180   0.540  1.1381 -1.0840 -0.4550
 6340SOL    HW220462   5.208   6.308   0.615 -0.6589 -1.1265  0.2818
 6341SOL     OW20463   6.754   2.991   6.667 -0.4536  0.0886 -0.1695
 6341SOL    HW120464   6.803   3.000   6.585 -0.8101 -1.2212 -0.5462
 6341SOL    HW220465   6.749   2.896   6.682 -0.1434  0.3003  1.5296
 6342SOL     OW20466   4.841   6.060   3.668 -0.2138  0.2703  0.7902
 6342SOL    HW120467   4.770   6.117   3.700 -1.0337 -0.6168  0.5927
 6342SOL    HW220468   4.843   5.988   3.731 -2.1673 -1.7614 -1.3275
 6343SOL     OW20469   2.257   3.977  10.722  0.1043  0.1415  0.2099
 6343SOL    HW120470   2.289   3.922  10.794 -1.0138 -0.6649  0.1137
 6343SOL    HW220471   2.336   4.008  10.679  0.7711 -0.7737  0.7408
 6344SOL     OW20472   0.393   1.194   9.920  0.1089 -0.6467  0.5090
 6344SOL    HW120473   0.467   1.231   9.870  0.6947 -0.5319  1.4350
 6344SOL    HW220474   0.367   1.264   9.979 -0.3473 -0.9029  0.6131
 6345SOL     OW20475   2.451   6.762   6.692  0.0128 -0.4313  0.0790
 6345SOL    HW120476   2.490   6.803   6.769 -1.5973 -1.1204  1.3273
 6345SOL    HW220477   2.463   6.668   6.705  0.3770 -0.5301 -0.8911
 6346SOL     OW20478   7.664   4.866   5.816 -0.0616  0.3337 -0.6749
 6346SOL    HW120479   7.670   4.944   5.873  1.5741 -0.0073 -0.3212
 6346SOL    HW220480   7.586   4.821   5.846  1.1098 -0.2104  1.8686
 6347SOL     OW20481   3.185   3.251   6.154  0.2532  0.4230  0.4166
 6347SOL    HW120482   3.172   3.157   6.162  0.2858 -0.0552 -3.2555
 6347SOL    HW220483   3.104   3.289   6.187 -0.8114 -1.0811 -0.3200
 6348SOL     OW20484   2.040   3.666  11.257  0.0852 -0.0654 -0.0587
 6348SOL    HW120485   1.998   3.751  11.266 -1.8236 -0.5831 -2.7390
 6348SOL    HW220486   2.131   3.686  11.235 -0.4330  1.3344 -1.0763
 6349SOL     OW20487   7.044   6.560   1.057 -0.3675 -0.2518  0.2807
 6349SOL    HW120488   7.024   6.646   1.020 -0.8993 -0.9155 -1.0322
 6349SOL    HW220489   7.118   6.528   1.005  0.5076 -0.1682  1.4402
 6350SOL     OW20490   4.913   1.903   8.132 -0.3023  0.1879  0.2937
 6350SOL    HW120491   4.912   1.923   8.226 -1.2314 -0.0004  0.3341
 6350SOL    HW220492   4.956   1.817   8.126 -0.9390 -0.1614  0.6303
 6351SOL     OW20493   2.536   6.242   0.031 -0.2049  0.1811  0.3432
 6351SOL    HW120494   2.477   6.311   0.059 -1.0908 -0.6292  0.5113
 6351SOL    HW220495   2.498   6.209  -0.050  1.3586  1.2800 -0.9181
 6352SOL     OW20496   7.101   0.543   4.079 -0.3120  0.4784 -0.3275
 6352SOL    HW120497   7.177   0.517   4.027 -0.8026  1.0976 -1.4032
 6352SOL    HW220498   7.048   0.597   4.019 -3.0027 -2.1618 -0.5654
 6353SOL     OW20499   1.770   1.933   5.400  0.3308 -0.0627  0.4642
 6353SOL    HW120500   1.768   1.843   5.431  0.0101  0.1478  1.0668
 6353SOL    HW220501   1.691   1.941   5.346  0.1932 -0.0549  0.6653
 6354SOL     OW20502   3.347   1.488   6.196  0.2615 -0.3989 -0.4283
 6354SOL    HW120503   3.339   1.566   6.140 -0.0855  0.0463  0.2294
 6354SOL    HW220504   3.324   1.519   6.284  2.0085 -0.7987  0.2060
 6355SOL     OW20505   3.372   7.484   5.557 -0.0454 -0.5863 -0.2691
 6355SOL    HW120506   3.403   7.548   5.621 -0.8087 -0.5107  0.0356
 6355SOL    HW220507   3.426   7.406   5.572  0.3546 -0.2807 -0.1155
 6356SOL     OW20508   7.412   1.362   1.101 -0.6090  0.1505  0.2744
 6356SOL    HW120509   7.350   1.417   1.052 -0.5357 -0.1666 -0.1869
 6356SOL    HW220510   7.489   1.358   1.044 -0.6268 -0.4472  0.2882
 6357SOL     OW20511   5.701   5.306  11.115  0.3568 -0.3867  0.0935
 6357SOL    HW120512   5.754   5.380  11.085 -1.3266  1.1804  0.8685
 6357SOL    HW220513   5.723   5.297  11.208 -0.3737 -0.0193  0.3086
 6358SOL     OW20514   5.070   3.870  12.359 -0.0701  0.1826  0.1117
 6358SOL    HW120515   5.106   3.858  12.446 -0.7903 -1.0347  0.2646
 6358SOL    HW220516   4.996   3.929  12.371  0.1181  0.3926  0.2422
 6359SOL     OW20517   4.740   4.903   1.251  0.2335 -0.4030 -0.3819
 6359SOL    HW120518   4.695   4.980   1.286  1.5221 -0.2196  0.9477
 6359SOL    HW220519   4.786   4.936   1.173 -0.4649 -0.2035 -0.7240
 6360SOL     OW20520   4.505   0.662   1.090  0.0230  0.1585  0.2688
 6360SOL    HW120521   4.592   0.674   1.052 -0.2650 -0.7252 -0.7355
 6360SOL    HW220522   4.518   0.602   1.163  0.6823  2.3558  2.0449
 6361SOL     OW20523   1.927   1.346   6.496  0.3309 -0.4582  0.4359
 6361SOL    HW120524   1.976   1.288   6.555 -1.0122 -3.0655 -0.8147
 6361SOL    HW220525   1.980   1.351   6.417  0.5157  0.1512  0.5992
 6362SOL     OW20526   5.743   5.489   2.077  0.7085 -0.2886  0.6195
 6362SOL    HW120527   5.753   5.422   2.009 -0.1705 -0.4946  0.6713
 6362SOL    HW220528   5.831   5.523   2.091  0.8978 -0.1638 -0.7096
 6363SOL     OW20529   0.849   3.968   3.789  0.0255  0.2381 -0.1672
 6363SOL    HW120530   0.782   3.915   3.746  1.5848 -1.4908 -0.6163
 6363SOL    HW220531   0.917   3.978   3.722 -0.3174  3.1616 -0.2082
 6364SOL     OW20532   5.237   7.064  11.199  0.2711  0.1391 -0.1853
 6364SOL    HW120533   5.179   7.136  11.224 -0.1671 -0.4023  0.4178
 6364SOL    HW220534   5.236   7.064  11.104  1.0525  1.5392 -0.2120
 6365SOL     OW20535   2.035   4.997   2.462 -0.1667 -0.1070 -0.0815
 6365SOL    HW120536   2.109   4.955   2.507  0.8052  3.2245  1.7580
 6365SOL    HW220537   1.997   5.056   2.528 -2.8860  0.1953 -1.7658
 6366SOL     OW20538   0.419   1.600   0.609 -0.0527 -0.0151  0.3707
 6366SOL    HW120539   0.400   1.508   0.593  1.1389 -0.1996 -0.0361
 6366SOL    HW220540   0.380   1.618   0.695  2.5148 -1.7784  2.0198
 6367SOL     OW20541   3.378   1.361   0.830  0.3844 -0.7061  0.3346
 6367SOL    HW120542   3.367   1.304   0.754  1.3756  0.1549 -0.4709
 6367SOL    HW220543   3.292   1.401   0.843 -0.1087 -1.7416  0.4231
 6368SOL     OW20544   4.659   3.168   3.676  0.0927 -0.0523  0.1655
 6368SOL    HW120545   4.584   3.217   3.709  0.4748  0.5983  0.0882
 6368SOL    HW220546   4.734   3.204   3.724  0.6385  0.7929 -1.2608
 6369SOL     OW20547   1.131   4.340   4.904 -0.1636  0.2935 -0.5048
 6369SOL    HW120548   1.155   4.381   4.986 -2.3609 -0.9728  0.8822
 6369SOL    HW220549   1.204   4.282   4.883 -0.2292 -0.5730  1.4570
 6370SOL     OW20550   5.380   3.481   8.217  0.2157 -0.5147 -0.3611
 6370SOL    HW120551   5.322   3.443   8.282  1.4698 -0.0573  1.1086
 6370SOL    HW220552   5.322   3.529   8.158 -0.9092  0.0441  1.1187
 6371SOL     OW20553   1.720   3.173   0.332 -0.3175  0.2572  0.4976
 6371SOL    HW120554   1.728   3.167   0.236  0.0612  1.5231  0.4398
 6371SOL    HW220555   1.806   3.147   0.365  0.1589  1.6305  0.3978
 6372SOL     OW20556   5.502   6.579   6.416 -0.0985 -0.3296  0.1726
 6372SOL    HW120557   5.496   6.645   6.348 -0.1559  0.5147  0.9762
 6372SOL    HW220558   5.418   6.583   6.462 -0.2367 -1.2058  0.0172
 6373SOL     OW20559   4.097   5.926   8.542  0.4957 -0.3015  0.4144
 6373SOL    HW120560   4.167   5.988   8.521 -0.0233 -0.0871 -0.7499
 6373SOL    HW220561   4.026   5.948   8.482 -0.6898 -0.3556  1.7498
 6374SOL     OW20562   5.787   2.798  11.780  0.3728 -0.1809  0.3111
 6374SOL    HW120563   5.741   2.834  11.704 -1.4211 -1.1676  0.8823
 6374SOL    HW220564   5.826   2.875  11.822 -1.7823  0.9045  0.4540
 6375SOL     OW20565   3.381   0.889  11.313  0.5561  0.0758  0.7159
 6375SOL    HW120566   3.322   0.953  11.272 -0.4039 -1.2575 -0.0587
 6375SOL    HW220567   3.437   0.859  11.241  1.6916  0.7448  1.2860
 6376SOL     OW20568   5.792   5.291   1.302  0.3339 -0.2546  0.1286
 6376SOL    HW120569   5.807   5.385   1.313 -0.0496 -0.0910 -0.6657
 6376SOL    HW220570   5.765   5.261   1.389 -1.5264  0.7583 -0.0492
 6377SOL     OW20571   1.188   0.868   9.528 -0.1390 -0.2163  0.2770
 6377SOL    HW120572   1.236   0.945   9.495  0.2837 -0.2596  0.7801
 6377SOL    HW220573   1.256   0.807   9.554 -0.4777 -0.7310 -0.0293
 6378SOL     OW20574   7.081   3.491   6.073  0.3059  0.1747  0.0552
 6378SOL    HW120575   7.168   3.463   6.044  0.4226  0.5627  0.0266
 6378SOL    HW220576   7.023   3.467   6.001  0.2446 -0.8984  0.4449
 6379SOL     OW20577   1.488   6.384   2.656 -0.0006 -0.2723 -0.0232
 6379SOL    HW120578   1.524   6.422   2.736  1.6527 -1.7238 -0.0366
 6379SOL    HW220579   1.461   6.460   2.605  0.8395  0.7787  1.0242
 6380SOL     OW20580   3.331   2.407  12.087  0.3641 -0.3145  0.4319
 6380SOL    HW120581   3.281   2.410  12.005 -1.7504  0.3973  1.6752
 6380SOL    HW220582   3.313   2.491  12.129  3.1788  0.2520  0.7068
 6381SOL     OW20583   5.383   6.169   0.909 -0.5101 -0.5263  0.0579
 6381SOL    HW120584   5.433   6.129   0.838  1.2245  0.4781  0.6524
 6381SOL    HW220585   5.375   6.100   0.975  0.9451 -0.4433  0.3468
 6382SOL     OW20586   3.483   2.392   3.093 -0.3747 -0.2522  0.5854
 6382SOL    HW120587   3.525   2.432   3.017 -0.0018 -2.5754 -0.5174
 6382SOL    HW220588   3.513   2.444   3.167 -0.8524  2.1684 -0.8187
 6383SOL     OW20589   2.675   4.172  11.326 -0.0962  0.0199  0.2665
 6383SOL    HW120590   2.673   4.219  11.409  0.0506  0.1902  0.1745
 6383SOL    HW220591   2.585   4.179  11.292  0.1796  1.1759 -0.2657
 6384SOL     OW20592   6.667   4.590   8.405 -0.5528  0.2422  0.2916
 6384SOL    HW120593   6.681   4.592   8.310 -0.6617  0.3976  0.2782
 6384SOL    HW220594   6.725   4.658   8.439 -0.1489 -0.1451  0.3858
 6385SOL     OW20595   2.144   5.593   6.436  0.1238  0.1047  0.0652
 6385SOL    HW120596   2.089   5.629   6.367  0.5471  1.7689  0.5512
 6385SOL    HW220597   2.089   5.596   6.515  0.0005 -0.7812  0.0174
 6386SOL     OW20598   0.971   4.248   5.553 -0.0086  0.0852 -0.8998
 6386SOL    HW120599   0.919   4.217   5.627 -2.5196  0.6960 -2.3263
 6386SOL    HW220600   1.061   4.223   5.576 -0.8481 -0.9095  1.7198
 6387SOL     OW20601   2.810   7.418   4.903  0.1590 -0.3138 -0.7307
 6387SOL    HW120602   2.779   7.353   4.967  0.9950 -0.8109 -0.8234
 6387SOL    HW220603   2.863   7.368   4.841  0.7612  0.4426 -0.8414
 6388SOL     OW20604   2.532   5.158   4.148 -0.6926  0.2171  0.1368
 6388SOL    HW120605   2.623   5.133   4.162  0.2329  3.2427  0.3378
 6388SOL    HW220606   2.484   5.117   4.220  0.7506 -0.3014  0.8341
 6389SOL     OW20607   6.140   0.270   1.133  0.2912  1.1147 -0.3323
 6389SOL    HW120608   6.088   0.192   1.152 -0.3358  1.4344 -0.7444
 6389SOL    HW220609   6.189   0.247   1.054 -0.4950  1.4248 -0.9157
 6390SOL     OW20610   4.753   4.060  10.614 -0.6035  0.3702  0.7687
 6390SOL    HW120611   4.785   4.098  10.532 -0.7022 -0.4604  0.3283
 6390SOL    HW220612   4.690   3.994  10.586  1.3036 -1.8482  1.3316
 6391SOL     OW20613   6.903   1.368   7.273  0.3335  0.0893  0.6032
 6391SOL    HW120614   6.850   1.400   7.200  0.3035  1.5226  1.2142
 6391SOL    HW220615   6.965   1.307   7.233  0.5538  1.1199 -0.6842
 6392SOL     OW20616   6.308   0.054   9.824 -0.0035  0.0381 -0.0083
 6392SOL    HW120617   6.240   0.063   9.758  0.8427  0.8678 -0.7974
 6392SOL    HW220618   6.296   0.130   9.881  0.4804  0.3789 -0.3593
 6393SOL     OW20619   4.415   7.362   0.692  0.0927 -0.4561 -0.2362
 6393SOL    HW120620   4.416   7.276   0.735  1.2355 -0.8545 -1.0204
 6393SOL    HW220621   4.359   7.350   0.615  0.8733 -0.7376 -0.7760
 6394SOL     OW20622   5.380   4.418   9.397 -0.4096 -0.3555  0.0986
 6394SOL    HW120623   5.474   4.405   9.412 -0.7904 -0.6588  2.7075
 6394SOL    HW220624   5.374   4.504   9.355  1.0680 -0.8047 -1.1249
 6395SOL     OW20625   1.927   7.574   3.027 -0.2814 -0.6165  0.5298
 6395SOL    HW120626   1.934   7.663   2.992  2.2465 -0.9311  0.0646
 6395SOL    HW220627   1.901   7.587   3.118 -1.5828  0.4880  0.0382
 6396SOL     OW20628   0.741   7.562   4.907 -0.0956 -0.2380 -0.1909
 6396SOL    HW120629   0.764   7.653   4.890  0.9312 -0.2862  0.8752
 6396SOL    HW220630   0.647   7.564   4.927  0.2841  0.8755  1.6812
 6397SOL     OW20631   7.312   0.151   8.954  0.0880  0.2554  0.0329
 6397SOL    HW120632   7.362   0.093   9.011  0.9289  1.2617  0.3405
 6397SOL    HW220633   7.316   0.237   8.997 -0.7866  0.6452 -0.6238
 6398SOL     OW20634   5.625   5.152   0.668 -0.2642 -0.0491 -1.2707
 6398SOL    HW120635   5.619   5.117   0.756 -1.2072  0.3564 -1.1670
 6398SOL    HW220636   5.535   5.171   0.642 -0.0283 -0.3604 -2.4058
 6399SOL     OW20637   2.612   3.923   9.825 -0.0951 -0.1530 -0.1745
 6399SOL    HW120638   2.552   3.989   9.792  0.2391  1.0224  1.4419
 6399SOL    HW220639   2.635   3.953   9.913  2.4644 -0.8357 -0.5448
 6400SOL     OW20640   4.143   1.149   2.128 -0.4305 -0.2336 -0.1300
 6400SOL    HW120641   4.173   1.067   2.088  0.1843  0.2037 -0.5863
 6400SOL    HW220642   4.092   1.121   2.204  0.5972 -1.0197  0.3001
 6401SOL     OW20643   7.889   7.079   2.045  0.2583 -0.9369  0.5792
 6401SOL    HW120644   7.919   7.166   2.021 -2.7689  0.5976  1.8424
 6401SOL    HW220645   7.967   7.036   2.081  1.8517  1.2104 -0.1156
 6402SOL     OW20646   6.030   5.233   3.534 -0.2668  0.0547 -0.5940
 6402SOL    HW120647   6.027   5.187   3.450 -0.8203  1.6506 -1.4962
 6402SOL    HW220648   5.959   5.194   3.585 -0.3952 -0.4550 -1.1464
 6403SOL     OW20649   4.437   3.379   8.357  0.2883  0.3749 -0.4723
 6403SOL    HW120650   4.484   3.315   8.410 -0.4519 -1.2182 -1.6195
 6403SOL    HW220651   4.496   3.398   8.284  0.6868  1.3863  0.0900
 6404SOL     OW20652   6.810   2.940  12.187 -0.4152  0.3555  0.0361
 6404SOL    HW120653   6.860   2.923  12.267  0.0746 -0.3030 -0.3840
 6404SOL    HW220654   6.798   2.853  12.148 -0.1392  0.7134 -0.8875
 6405SOL     OW20655   4.293   7.350   0.415 -0.0536  0.5886  0.0027
 6405SOL    HW120656   4.290   7.388   0.328  0.2832 -1.2274 -0.8530
 6405SOL    HW220657   4.202   7.344   0.443 -0.4590 -1.4568 -1.4960
 6406SOL     OW20658   0.245   2.157   3.081 -0.1034 -0.1582  0.2648
 6406SOL    HW120659   0.184   2.094   3.120 -0.2497 -1.2233 -1.5750
 6406SOL    HW220660   0.192   2.235   3.065 -0.1897  0.0690  1.5365
 6407SOL     OW20661   2.734   1.225   1.383 -0.1336 -0.0715  0.1283
 6407SOL    HW120662   2.739   1.319   1.400 -0.1506 -0.4748  2.8001
 6407SOL    HW220663   2.822   1.201   1.355  0.0403  0.6324  0.0525
 6408SOL     OW20664   6.383   4.908   0.540  0.5461 -0.1241  0.2575
 6408SOL    HW120665   6.369   4.999   0.513 -0.5447 -0.7265 -1.4490
 6408SOL    HW220666   6.442   4.913   0.614  0.0181  2.0165  0.6012
 6409SOL     OW20667   2.395   3.896   0.318 -0.6731  0.2586  0.7161
 6409SOL    HW120668   2.435   3.900   0.231 -0.7432 -2.6531  0.4365
 6409SOL    HW220669   2.470   3.895   0.378 -0.5533  0.5774  0.5740
 6410SOL     OW20670   4.347   5.481  11.499 -0.0708  0.5398 -0.1915
 6410SOL    HW120671   4.276   5.465  11.561  0.6441  0.3325  0.5973
 6410SOL    HW220672   4.367   5.575  11.508  0.0454  0.5057 -0.0921
 6411SOL     OW20673   7.318   6.244   2.735  0.2900  0.5499 -0.1209
 6411SOL    HW120674   7.357   6.327   2.764 -0.2616  0.2216  1.6689
 6411SOL    HW220675   7.302   6.196   2.816 -1.5943 -0.3294 -0.9661
 6412SOL     OW20676   5.744   1.155   7.630  0.4275 -0.0177 -0.3100
 6412SOL    HW120677   5.671   1.210   7.658 -1.2080 -1.7691 -0.9697
 6412SOL    HW220678   5.809   1.165   7.699 -1.3668 -0.1650  1.4970
 6413SOL     OW20679   7.107   2.070   4.365 -0.0341  0.3149  0.1306
 6413SOL    HW120680   7.094   2.017   4.286  0.1203  1.6022 -0.8049
 6413SOL    HW220681   7.145   2.010   4.429  0.6178 -0.5701 -1.0458
 6414SOL     OW20682   7.668   0.726   2.667 -0.1067 -0.4960 -0.1839
 6414SOL    HW120683   7.610   0.801   2.653  0.1259 -0.6941 -2.6573
 6414SOL    HW220684   7.612   0.650   2.652 -0.1053 -0.8372  1.3684
 6415SOL     OW20685   1.418   5.642   2.610 -0.2501 -0.1234  0.5766
 6415SOL    HW120686   1.474   5.565   2.611 -0.2891 -0.1715 -0.1806
 6415SOL    HW220687   1.428   5.677   2.521 -2.2444 -0.7339  0.0653
 6416SOL     OW20688   7.921   1.488   7.908  0.0393  0.0047 -0.3154
 6416SOL    HW120689   7.952   1.397   7.909  0.6117  0.1748  1.7673
 6416SOL    HW220690   7.827   1.481   7.892  0.4173 -0.7596 -2.6547
 6417SOL     OW20691   5.866   5.515  10.169 -0.2240 -0.0062  0.4239
 6417SOL    HW120692   5.782   5.469  10.165  0.4330 -1.2026  0.0359
 6417SOL    HW220693   5.909   5.482  10.247  0.2511 -0.0524  0.1481
 6418SOL     OW20694   0.253   0.342   2.738 -0.1162 -0.2527 -0.2032
 6418SOL    HW120695   0.246   0.428   2.778 -0.5273 -0.7337  0.8072
 6418SOL    HW220696   0.318   0.352   2.669  0.5925  0.6247  0.5759
 6419SOL     OW20697   4.853   3.246   0.168  0.0416 -0.1106 -0.8471
 6419SOL    HW120698   4.883   3.331   0.136  0.7579  0.8013  2.0063
 6419SOL    HW220699   4.763   3.239   0.135 -0.6523  2.5777  0.2600
 6420SOL     OW20700   0.503   4.545   5.666 -0.3289  0.0993  0.6144
 6420SOL    HW120701   0.555   4.478   5.711  0.4958  0.5041  0.2825
 6420SOL    HW220702   0.419   4.545   5.713  0.7882  1.1478  2.7767
 6421SOL     OW20703   4.596   6.899  11.239  0.1523  0.5429 -0.4154
 6421SOL    HW120704   4.515   6.936  11.203  0.3395  1.0796 -0.2975
 6421SOL    HW220705   4.567   6.830  11.298 -0.1915  0.2636 -0.8984
 6422SOL     OW20706   3.128   7.680   5.541  0.0658  0.0377 -0.5861
 6422SOL    HW120707   3.190   7.610   5.558  1.2359  1.2933  0.5382
 6422SOL    HW220708   3.175   7.760   5.564 -2.5094  0.9433  2.1132
 6423SOL     OW20709   0.263   1.688   3.852  0.2394  0.1338 -0.7281
 6423SOL    HW120710   0.271   1.770   3.802  0.0623  0.4509 -0.2427
 6423SOL    HW220711   0.256   1.717   3.943  0.4425 -0.4376 -0.5311
 6424SOL     OW20712   6.835   4.363   8.797  0.2863  0.0720  0.5382
 6424SOL    HW120713   6.891   4.439   8.784  0.0065  0.0619 -0.9397
 6424SOL    HW220714   6.882   4.291   8.755 -0.4413 -0.1073  0.0021
 6425SOL     OW20715   5.413   0.950  11.691  0.0995 -0.3484  0.0809
 6425SOL    HW120716   5.346   1.015  11.711  0.5203 -0.0097  0.3913
 6425SOL    HW220717   5.414   0.892  11.767 -0.4775 -0.9020 -0.3182
 6426SOL     OW20718   2.658   5.864   1.993  0.3057 -0.2236  1.1981
 6426SOL    HW120719   2.666   5.959   1.990 -0.4884 -0.1693 -0.2909
 6426SOL    HW220720   2.734   5.832   1.944 -0.4251 -0.2660  0.0638
 6427SOL     OW20721   5.549   7.141   4.791 -0.1472  0.1255 -0.8663
 6427SOL    HW120722   5.485   7.212   4.796 -0.8788 -0.4787 -1.5200
 6427SOL    HW220723   5.592   7.154   4.706  1.3810  1.1581  0.0004
 6428SOL     OW20724   4.143   3.360  11.351 -0.0820  0.4533 -0.1652
 6428SOL    HW120725   4.129   3.286  11.410 -1.4609  1.2901  0.6115
 6428SOL    HW220726   4.185   3.426  11.405 -1.6051  1.3301  0.0175
 6429SOL     OW20727   5.780   1.560   1.333  0.8141  0.5542  0.6344
 6429SOL    HW120728   5.755   1.538   1.423 -1.7160  0.2403 -0.0523
 6429SOL    HW220729   5.701   1.598   1.295  0.6142 -2.3822 -2.4355
 6430SOL     OW20730   5.453   6.697   1.782 -0.4061  0.2229 -0.0069
 6430SOL    HW120731   5.412   6.620   1.743 -0.5059 -0.0811  0.6919
 6430SOL    HW220732   5.389   6.767   1.768 -0.1409  0.2828 -0.9997
 6431SOL     OW20733   5.401   7.368   8.141  0.2994 -0.5210 -0.0079
 6431SOL    HW120734   5.421   7.415   8.061 -0.5934  1.2902  0.7805
 6431SOL    HW220735   5.487   7.346   8.178  0.7180 -1.2760 -1.3645
 6432SOL     OW20736   2.875   2.983   7.613  0.3935 -0.1199 -0.3494
 6432SOL    HW120737   2.807   2.941   7.665  1.5882 -2.4504 -0.5245
 6432SOL    HW220738   2.829   3.022   7.539 -1.1036  1.5787  1.3533
 6433SOL     OW20739   4.035   1.670   9.088 -0.4113  0.1660 -0.0193
 6433SOL    HW120740   4.058   1.627   9.170 -1.7871 -0.7909 -0.1042
 6433SOL    HW220741   4.009   1.599   9.030  0.3672  0.8432 -1.2491
 6434SOL     OW20742   1.371   7.202   9.106 -0.1220 -0.4464 -0.1697
 6434SOL    HW120743   1.465   7.217   9.112  0.0317 -1.9020  2.7988
 6434SOL    HW220744   1.346   7.167   9.191 -2.8494 -2.8910 -1.7440
 6435SOL     OW20745   5.283   7.480   0.999  0.3181  0.0906 -0.2325
 6435SOL    HW120746   5.253   7.393   0.974 -0.1932 -0.1113  1.0150
 6435SOL    HW220747   5.295   7.526   0.916 -0.5753 -0.7812 -0.8643
 6436SOL     OW20748   5.755   7.135   7.640  0.1883 -0.3973  0.2797
 6436SOL    HW120749   5.705   7.060   7.672  0.5274 -0.1353  1.4772
 6436SOL    HW220750   5.843   7.122   7.676  0.3543  0.3590  0.1595
 6437SOL     OW20751   1.502   2.567   3.463 -0.1129 -0.1824  0.2819
 6437SOL    HW120752   1.413   2.580   3.428 -1.1201  0.1368  2.7811
 6437SOL    HW220753   1.500   2.480   3.501  0.7362 -0.2618  0.1526
 6438SOL     OW20754   2.081   0.258   8.221  0.4240  0.1359 -0.4954
 6438SOL    HW120755   2.130   0.266   8.302 -0.2119  0.4967 -0.1455
 6438SOL    HW220756   2.008   0.318   8.230 -0.3152 -0.6816 -0.8491
 6439SOL     OW20757   4.910   0.337  10.853 -0.3007 -0.6044 -0.1188
 6439SOL    HW120758   4.933   0.428  10.831 -1.1270 -0.8242 -2.0616
 6439SOL    HW220759   4.823   0.343  10.892 -0.3142 -0.5537 -0.1571
 6440SOL     OW20760   7.172   4.765   4.802  0.1170 -0.2306 -0.3548
 6440SOL    HW120761   7.137   4.705   4.868 -0.9023  1.4944  0.7847
 6440SOL    HW220762   7.256   4.793   4.838 -2.0304  3.6491  2.4195
 6441SOL     OW20763   2.503   6.560   0.397  0.2077  0.3124 -0.2329
 6441SOL    HW120764   2.573   6.529   0.338  0.9919 -0.0294  0.8440
 6441SOL    HW220765   2.510   6.655   0.394  1.1416  0.2745  0.3275
 6442SOL     OW20766   3.417   2.978   5.984  0.1443 -0.0884 -0.6520
 6442SOL    HW120767   3.357   2.998   6.056  1.6699  0.1942  0.6219
 6442SOL    HW220768   3.457   3.062   5.962 -1.3401  0.0877 -2.8695
 6443SOL     OW20769   1.244   4.926   3.521 -0.3364 -0.8417  0.0526
 6443SOL    HW120770   1.261   5.015   3.553  2.1918 -0.8584 -0.9691
 6443SOL    HW220771   1.156   4.930   3.484 -0.5711  1.0389  0.7023
 6444SOL     OW20772   0.093   5.949  10.544 -0.2556  0.1064  0.7430
 6444SOL    HW120773   0.122   6.039  10.525  1.7035 -0.4882  0.7129
 6444SOL    HW220774   0.042   5.957  10.624 -1.2240  1.4099  0.0454
 6445SOL     OW20775   7.206   1.907   7.057 -0.0822 -0.5773 -0.1005
 6445SOL    HW120776   7.246   1.939   7.138  0.1254 -1.8477  0.3334
 6445SOL    HW220777   7.113   1.897   7.078 -0.7073  2.3276 -1.0937
 6446SOL     OW20778   0.981   3.056   0.973  0.0758 -0.2876 -0.1560
 6446SOL    HW120779   0.887   3.040   0.981  0.0587  0.3306  1.4690
 6446SOL    HW220780   0.992   3.097   0.887 -1.1741 -0.2016 -0.2882
 6447SOL     OW20781   0.512   3.786   9.707 -0.1235 -0.1682 -0.7650
 6447SOL    HW120782   0.491   3.793   9.800 -1.9536  0.5912 -1.1923
 6447SOL    HW220783   0.478   3.868   9.669  0.8169 -0.3531 -2.0632
 6448SOL     OW20784   2.093   0.739   6.312  0.1037 -0.2733  0.1857
 6448SOL    HW120785   2.095   0.688   6.232 -0.0472  1.7327 -1.1745
 6448SOL    HW220786   2.186   0.753   6.334  0.1469 -0.6425  0.2392
 6449SOL     OW20787   7.003   2.343   7.766  0.0295 -0.6105  0.1176
 6449SOL    HW120788   7.086   2.344   7.813 -0.2175 -3.3310  0.7446
 6449SOL    HW220789   6.937   2.362   7.832  0.0296  0.4389 -0.1624
 6450SOL     OW20790   6.707   5.408   3.046 -0.2880 -0.3708  0.3367
 6450SOL    HW120791   6.769   5.337   3.063 -0.0309 -0.3915 -0.6419
 6450SOL    HW220792   6.645   5.404   3.120 -1.3262 -2.7201 -0.5574
 6451SOL     OW20793   6.847   0.935  11.364 -0.8068  0.4744 -0.5601
 6451SOL    HW120794   6.866   0.959  11.455 -1.7745 -1.6014  0.2720
 6451SOL    HW220795   6.787   1.002  11.333  1.3725  2.5491 -0.5227
 6452SOL     OW20796   0.410   7.223   2.447  0.5201  0.0104 -0.2469
 6452SOL    HW120797   0.504   7.221   2.465  0.4866 -2.6719  0.0860
 6452SOL    HW220798   0.403   7.255   2.357  1.6725  0.8717 -0.0526
 6453SOL     OW20799   3.826   5.187   4.585 -0.7019  0.2563 -0.1437
 6453SOL    HW120800   3.845   5.158   4.496 -1.0770 -1.3759  0.2636
 6453SOL    HW220801   3.912   5.207   4.622 -0.2640 -1.4144 -0.1458
 6454SOL     OW20802   5.753   3.538   7.151  0.7041 -0.3618  0.2313
 6454SOL    HW120803   5.705   3.562   7.072  1.1367 -1.0947 -0.2650
 6454SOL    HW220804   5.686   3.526   7.218  0.1448 -1.6756 -0.5249
 6455SOL     OW20805   6.946   4.125   2.288  0.0790  0.4231  0.1368
 6455SOL    HW120806   7.002   4.047   2.294  1.1312  1.2089  0.7446
 6455SOL    HW220807   6.913   4.123   2.199 -0.1227 -0.8630  0.2139
 6456SOL     OW20808   2.793   7.138   6.126 -0.2536 -0.6052 -0.0062
 6456SOL    HW120809   2.763   7.094   6.046 -1.4911  0.7529 -0.3442
 6456SOL    HW220810   2.759   7.227   6.117  1.0250  0.0368  1.2724
 6457SOL     OW20811   7.484   1.240   2.962 -0.3515  0.2280  0.2742
 6457SOL    HW120812   7.409   1.278   2.917 -1.5392 -1.1643  1.0090
 6457SOL    HW220813   7.518   1.311   3.016 -2.4853  0.3170  1.5870
 6458SOL     OW20814   4.057   1.082   6.562 -0.1601 -0.2761 -0.3195
 6458SOL    HW120815   4.062   1.087   6.467 -0.2472 -2.9496 -0.5367
 6458SOL    HW220816   3.965   1.099   6.582 -0.4866 -1.2639 -0.8922
 6459SOL     OW20817   3.471   1.472   7.342 -0.0651  0.0122 -0.2049
 6459SOL    HW120818   3.508   1.546   7.390 -3.1495  0.7380  1.3606
 6459SOL    HW220819   3.407   1.434   7.403 -1.9753 -0.9669 -2.6551
 6460SOL     OW20820   7.027   7.604   2.319  0.1158  0.1720 -0.3825
 6460SOL    HW120821   7.082   7.530   2.295 -0.7696 -0.3699 -0.7860
 6460SOL    HW220822   6.937   7.575   2.301 -0.4365  0.5428  1.4651
 6461SOL     OW20823   0.925   6.950   4.819 -0.0531 -0.0816  0.1318
 6461SOL    HW120824   1.017   6.961   4.792  0.4160  0.8562  1.9657
 6461SOL    HW220825   0.927   6.957   4.914 -2.3770  2.5329  0.1046
 6462SOL     OW20826   7.824   4.689   0.523 -0.1458 -0.2207 -0.8433
 6462SOL    HW120827   7.836   4.609   0.575 -1.5949  0.7346  1.1161
 6462SOL    HW220828   7.887   4.751   0.560  0.8527 -0.3463 -2.2413
 6463SOL     OW20829   3.266   5.113   1.508  0.5518 -0.3959 -0.0542
 6463SOL    HW120830   3.298   5.102   1.598  0.9449  0.8148 -0.0311
 6463SOL    HW220831   3.212   5.192   1.512  1.7423  0.5014 -1.1757
 6464SOL     OW20832   3.196   1.195   6.785  0.5034  0.2047  0.4468
 6464SOL    HW120833   3.122   1.202   6.845  0.9151  0.0881  0.9846
 6464SOL    HW220834   3.163   1.225   6.701 -0.1003  0.3271  0.7251
 6465SOL     OW20835   4.616   1.644   8.515 -0.0762  0.3830 -0.1224
 6465SOL    HW120836   4.627   1.683   8.428  0.1610  0.5455 -0.0211
 6465SOL    HW220837   4.683   1.576   8.520 -1.9209 -1.6462 -1.1732
 6466SOL     OW20838   6.450   6.373  10.929  0.4147 -0.1186  0.1111
 6466SOL    HW120839   6.371   6.345  10.883  0.9063  0.6421 -1.2755
 6466SOL    HW220840   6.445   6.468  10.931  0.0995 -0.1344  2.2947
 6467SOL     OW20841   6.514   3.947   5.022 -0.2275 -0.1751 -0.1067
 6467SOL    HW120842   6.492   4.026   5.073  1.2650  0.8137 -0.9342
 6467SOL    HW220843   6.440   3.888   5.038 -1.0558  1.1029  1.1034
 6468SOL     OW20844   6.802   2.314   9.909 -0.2561 -0.6267  0.0178
 6468SOL    HW120845   6.855   2.244   9.869  1.2906  0.5134 -0.0461
 6468SOL    HW220846   6.862   2.358   9.969 -1.6144 -0.2328  1.1336
 6469SOL     OW20847   5.581   2.135   8.910  0.1986 -1.0054 -0.3573
 6469SOL    HW120848   5.549   2.052   8.944 -1.5700  0.3923  1.5907
 6469SOL    HW220849   5.579   2.195   8.985 -1.4236  1.5850 -2.3071
 6470SOL     OW20850   4.700   6.781   2.847 -0.2941 -0.0963 -0.0366
 6470SOL    HW120851   4.611   6.748   2.854 -0.0260 -0.5788  1.4705
 6470SOL    HW220852   4.709   6.842   2.920  0.5243  0.1415 -0.3262
 6471SOL     OW20853   5.361   5.649   8.237  0.1233  0.2213  0.3251
 6471SOL    HW120854   5.320   5.601   8.164 -1.2059 -1.6185  2.1537
 6471SOL    HW220855   5.443   5.682   8.201 -0.5187 -0.5100 -2.0199
 6472SOL     OW20856   0.235   7.849   0.197 -0.4058 -0.0399  0.3639
 6472SOL    HW120857   0.210   7.832   0.106  2.3818 -1.0189 -0.3414
 6472SOL    HW220858   0.199   7.935   0.217 -1.9690 -0.2567 -1.2972
 6473SOL     OW20859   3.681   3.806   1.831 -0.2469  0.0624 -0.1556
 6473SOL    HW120860   3.669   3.868   1.902 -1.7910  0.5718 -0.8165
 6473SOL    HW220861   3.716   3.728   1.873 -0.3813  0.6134  1.0320
 6474SOL     OW20862   6.936   0.514   4.289  0.0830 -0.2514  0.1410
 6474SOL    HW120863   6.890   0.590   4.255  0.1510  0.1587  0.9593
 6474SOL    HW220864   7.019   0.513   4.241 -0.1855 -0.1905 -0.3334
 6475SOL     OW20865   6.702   7.328  10.443  0.1969 -0.1255  0.2488
 6475SOL    HW120866   6.797   7.323  10.451  0.3009  0.8609 -0.3111
 6475SOL    HW220867   6.685   7.408  10.393 -0.9036 -0.5429 -0.0892
 6476SOL     OW20868   7.179   1.116  11.526 -0.6570 -0.1079  0.3772
 6476SOL    HW120869   7.258   1.116  11.471 -0.8738  0.0050  0.0599
 6476SOL    HW220870   7.165   1.025  11.548 -1.0180 -0.2547 -0.4167
 6477SOL     OW20871   6.766   1.292  11.245  0.1005  0.2550 -0.3969
 6477SOL    HW120872   6.796   1.319  11.159  0.5610 -0.5407 -0.4969
 6477SOL    HW220873   6.716   1.211  11.229  0.8330 -0.3166  0.1572
 6478SOL     OW20874   1.680   5.242  10.385  0.2363 -0.6271 -0.4245
 6478SOL    HW120875   1.680   5.288  10.301 -0.6312  0.3940  0.1042
 6478SOL    HW220876   1.695   5.150  10.363  0.2068 -0.3485 -1.6697
 6479SOL     OW20877   5.546   6.654  11.808  0.1127  0.5623  0.3319
 6479SOL    HW120878   5.583   6.704  11.881 -0.2707  0.0871  0.8573
 6479SOL    HW220879   5.597   6.683  11.731  1.7400 -0.2303  1.0602
 6480SOL     OW20880   1.070   0.640   3.193  0.1338  0.7557  0.0518
 6480SOL    HW120881   0.999   0.665   3.253 -0.8348 -1.5437 -0.0520
 6480SOL    HW220882   1.029   0.639   3.106  0.2872 -0.5312 -0.0164
 6481SOL     OW20883   4.923   7.121  10.726 -0.0217 -0.1766  0.4398
 6481SOL    HW120884   4.915   7.030  10.697 -1.4722  0.4464 -1.2412
 6481SOL    HW220885   4.970   7.165  10.656  2.0803  0.1181  1.9358
 6482SOL     OW20886   6.820   5.050   3.845  0.2572  0.6872  0.1442
 6482SOL    HW120887   6.855   5.135   3.819  0.7810  0.2701 -0.5651
 6482SOL    HW220888   6.879   4.987   3.805 -1.0616 -0.0373 -0.7365
 6483SOL     OW20889   1.750   0.628   9.659  0.0409 -0.0692 -0.2267
 6483SOL    HW120890   1.719   0.547   9.699  0.3224 -0.0353  0.0660
 6483SOL    HW220891   1.845   0.620   9.662  0.0946  0.8199  0.9341
 6484SOL     OW20892   5.626   4.238   0.294  0.3243 -0.4321 -0.2148
 6484SOL    HW120893   5.704   4.184   0.303  1.1296  0.5856 -0.9019
 6484SOL    HW220894   5.633   4.277   0.208 -0.9957 -0.3755 -0.3261
 6485SOL     OW20895   1.864   4.823   9.906  0.5349  0.4841  0.4168
 6485SOL    HW120896   1.835   4.731   9.903  1.2017  0.2915 -1.3948
 6485SOL    HW220897   1.904   4.833   9.992  1.4899 -1.2664  0.2152
 6486SOL     OW20898   1.942   6.033   5.427  0.0187 -0.2970  0.0483
 6486SOL    HW120899   1.910   6.047   5.516 -2.4068 -0.4136 -0.7313
 6486SOL    HW220900   1.969   6.120   5.397 -1.3228  0.1915  0.1595
 6487SOL     OW20901   2.558   7.561   2.809  0.0073 -0.4507 -0.3979
 6487SOL    HW120902   2.478   7.512   2.790  0.3036 -1.0506 -0.1139
 6487SOL    HW220903   2.579   7.605   2.727 -0.0869 -1.0447 -0.7483
 6488SOL     OW20904   7.823   6.487   3.302  0.4548  0.0948  0.0451
 6488SOL    HW120905   7.787   6.399   3.294 -0.8033  0.5142  0.7832
 6488SOL    HW220906   7.781   6.537   3.232  1.4879  0.0244 -0.6446
 6489SOL     OW20907   7.597   1.338  11.603 -0.0013 -0.0626  0.3418
 6489SOL    HW120908   7.590   1.295  11.688  3.0733  0.5978  1.0399
 6489SOL    HW220909   7.677   1.302  11.564  0.2176  1.7278 -1.0167
 6490SOL     OW20910   0.405   5.999   7.711  0.1081  0.3125  0.3129
 6490SOL    HW120911   0.396   6.091   7.733  1.4769  0.8501 -1.1561
 6490SOL    HW220912   0.476   5.967   7.766 -0.1688  0.2199  0.6138
 6491SOL     OW20913   0.732   3.677   8.809  0.5295 -0.4251  0.0789
 6491SOL    HW120914   0.745   3.738   8.882 -2.5717 -0.4790  0.8178
 6491SOL    HW220915   0.804   3.614   8.818  0.6803  0.0044  2.6455
 6492SOL     OW20916   6.709   2.276   7.898  0.3656  0.2104  0.1200
 6492SOL    HW120917   6.752   2.354   7.934 -0.4204  1.2112 -1.0085
 6492SOL    HW220918   6.621   2.306   7.875 -0.2875 -1.2777  0.5360
 6493SOL     OW20919   1.271   0.960   4.808 -0.0622 -0.1394 -0.5542
 6493SOL    HW120920   1.208   0.906   4.760 -1.8984  2.1064 -0.8294
 6493SOL    HW220921   1.343   0.974   4.747  1.2661 -3.4641  0.0530
 6494SOL     OW20922   7.926   4.165   0.630  0.6282 -0.2869 -0.1936
 6494SOL    HW120923   7.938   4.138   0.539  0.2930 -0.3317 -0.2247
 6494SOL    HW220924   8.015   4.182   0.662  0.6670  1.2024 -0.9840
 6495SOL     OW20925   6.254   1.971   6.366  0.0440 -0.0361  1.0020
 6495SOL    HW120926   6.209   1.943   6.446 -2.1984  0.6791  0.0680
 6495SOL    HW220927   6.248   2.066   6.367 -0.7818 -0.0491 -0.4067
 6496SOL     OW20928   2.113   0.131   5.865  0.8524  0.4176  0.2028
 6496SOL    HW120929   2.122   0.090   5.951  1.4805  0.5782  0.2184
 6496SOL    HW220930   2.023   0.166   5.865  0.1271 -1.3755 -0.0150
 6497SOL     OW20931   5.880   4.841   7.075 -0.1121  0.0958 -0.5167
 6497SOL    HW120932   5.894   4.790   6.995 -0.5576 -1.8994  0.6139
 6497SOL    HW220933   5.800   4.804   7.113  0.4649  0.5540  1.2055
 6498SOL     OW20934   6.278   5.081   3.824  0.3381  0.0547  0.3698
 6498SOL    HW120935   6.224   5.127   3.888  0.4013  0.2247  0.3020
 6498SOL    HW220936   6.367   5.110   3.842  0.5033 -0.7677  0.9442
 6499SOL     OW20937   6.989   6.003   7.440 -0.1871  0.6202  0.2894
 6499SOL    HW120938   6.950   5.942   7.377  2.3405 -0.9772  0.1487
 6499SOL    HW220939   7.053   6.052   7.389  0.1869  1.0041  1.1206
 6500SOL     OW20940   2.191   3.547   7.503  0.1408  0.0773 -0.1990
 6500SOL    HW120941   2.119   3.583   7.451 -0.7369 -0.5637  0.5433
 6500SOL    HW220942   2.270   3.587   7.466 -0.4720 -0.1764 -1.8524
 6501SOL     OW20943   5.713   4.434   1.451  0.1733 -0.2584 -0.4087
 6501SOL    HW120944   5.800   4.407   1.422 -0.6330 -0.7950 -2.4488
 6501SOL    HW220945   5.654   4.407   1.381 -1.6365  0.2481  0.8437
 6502SOL     OW20946   3.139   5.104   0.651 -0.2461  0.3125 -0.1742
 6502SOL    HW120947   3.153   5.180   0.594  1.2090  0.8918  0.8714
 6502SOL    HW220948   3.225   5.062   0.655 -0.3754  0.1378  1.3465
 6503SOL     OW20949   3.232   6.463   0.147 -0.2543 -0.4447  0.3114
 6503SOL    HW120950   3.155   6.514   0.173  0.0201 -0.5494  1.4024
 6503SOL    HW220951   3.247   6.486   0.055 -0.5220  0.9372  0.5894
 6504SOL     OW20952   0.306   0.939   8.792  0.0075 -0.2727 -0.4211
 6504SOL    HW120953   0.235   0.951   8.730 -1.0870 -1.0236  0.6388
 6504SOL    HW220954   0.316   0.844   8.800 -1.9996 -0.3658  2.7785
 6505SOL     OW20955   1.355   3.721   4.008 -0.5339 -0.1284  0.2765
 6505SOL    HW120956   1.419   3.653   3.985 -1.1957 -0.6405 -0.0879
 6505SOL    HW220957   1.406   3.801   4.014  0.1044 -0.4801 -0.2913
 6506SOL     OW20958   1.323   5.920  10.026 -0.2031  0.0893  0.1662
 6506SOL    HW120959   1.300   5.902  10.117 -1.3429 -1.9851 -0.4693
 6506SOL    HW220960   1.418   5.921  10.025 -0.1785  0.7531  1.4702
 6507SOL     OW20961   1.282   5.657   0.562 -0.1358 -0.1155 -0.2096
 6507SOL    HW120962   1.203   5.655   0.616 -0.5745  1.5924 -0.6917
 6507SOL    HW220963   1.292   5.568   0.530 -0.4162 -0.9419  1.8770
 6508SOL     OW20964   6.659   4.933   6.373  0.0020 -0.0212 -0.6856
 6508SOL    HW120965   6.678   4.857   6.428 -0.1079 -0.4219 -1.1876
 6508SOL    HW220966   6.565   4.929   6.358  0.2888 -1.1978 -2.6743
 6509SOL     OW20967   3.585   7.736   3.289  0.2569  0.2566  0.0766
 6509SOL    HW120968   3.490   7.736   3.277  0.1458 -0.3280  0.8687
 6509SOL    HW220969   3.605   7.820   3.328 -0.2021 -0.3569  1.7181
 6510SOL     OW20970   0.753   2.420  11.828 -0.3607 -0.3783 -0.8222
 6510SOL    HW120971   0.790   2.487  11.886 -1.1782  0.9112 -1.7325
 6510SOL    HW220972   0.677   2.385  11.876  0.0556 -0.6396 -0.3532
 6511SOL     OW20973   2.440   3.010   2.584  0.4354  0.2123 -0.4642
 6511SOL    HW120974   2.470   3.069   2.516  1.2724  1.1546  0.6674
 6511SOL    HW220975   2.369   3.057   2.628  1.1390  0.4210  0.4772
 6512SOL     OW20976   6.420   0.343   2.560 -0.0212  0.3285 -0.4507
 6512SOL    HW120977   6.457   0.255   2.558 -1.5242 -0.3529  0.0169
 6512SOL    HW220978   6.457   0.386   2.482  0.8393 -0.6548 -0.6147
 6513SOL     OW20979   7.687   4.890   1.555  0.2011 -0.2382 -0.5453
 6513SOL    HW120980   7.698   4.927   1.642 -2.4326  0.7956 -0.5679
 6513SOL    HW220981   7.674   4.796   1.570 -0.4747 -0.0301  0.1986
 6514SOL     OW20982   4.686   2.961   1.129  0.6450 -0.1207  0.1631
 6514SOL    HW120983   4.678   2.960   1.224  1.4115  0.4216  0.2420
 6514SOL    HW220984   4.632   3.036   1.101 -2.2393 -2.1165 -0.1432
 6515SOL     OW20985   7.106   3.489   8.694 -0.0717  0.2249 -0.1435
 6515SOL    HW120986   7.172   3.419   8.699  0.8652  0.8826 -2.1437
 6515SOL    HW220987   7.130   3.538   8.615 -2.0110  1.4909  0.0045
 6516SOL     OW20988   2.523   2.250  11.318 -0.2275 -0.5493  0.0575
 6516SOL    HW120989   2.544   2.320  11.255 -0.1603 -1.6672 -1.2090
 6516SOL    HW220990   2.526   2.293  11.403  0.6878  0.8005 -0.6152
 6517SOL     OW20991   0.490   5.147   3.521  0.1251 -0.0322  0.3272
 6517SOL    HW120992   0.431   5.223   3.521 -0.1074 -0.1859 -0.9462
 6517SOL    HW220993   0.576   5.184   3.538 -0.2590  0.2501  1.7929
 6518SOL     OW20994   0.324   6.726   4.682  0.1186  0.2019 -0.4330
 6518SOL    HW120995   0.261   6.664   4.645 -0.7324  0.7144  0.1202
 6518SOL    HW220996   0.334   6.697   4.773  3.9184 -2.4552 -1.4555
 6519SOL     OW20997   6.415   5.624   7.238 -0.4714  0.0315  0.3461
 6519SOL    HW120998   6.499   5.590   7.269 -0.3007 -0.9343 -1.0475
 6519SOL    HW220999   6.434   5.658   7.150 -1.2855  0.9343  0.5106
 6520SOL     OW21000   2.434   1.649  11.907  0.5388  0.2004  0.4237
 6520SOL    HW121001   2.416   1.626  11.998 -1.3188  1.1337  0.3540
 6520SOL    HW221002   2.519   1.694  11.909  2.0738 -2.5320  1.1753
 6521SOL     OW21003   0.747   2.771   4.173  0.0337 -0.0673  0.3258
 6521SOL    HW121004   0.676   2.717   4.137 -0.1822 -0.3009  1.0765
 6521SOL    HW221005   0.728   2.859   4.142 -0.6740 -0.0999  0.6429
 6522SOL     OW21006   3.715   7.483   4.457 -0.2144  0.2356  0.3071
 6522SOL    HW121007   3.700   7.518   4.369 -0.5520 -0.0197  0.2635
 6522SOL    HW221008   3.694   7.556   4.515 -1.5541 -0.0740  0.2452
 6523SOL     OW21009   0.688   1.210  11.413  0.4730 -0.4838  0.0858
 6523SOL    HW121010   0.658   1.274  11.478  3.2541 -0.9341  1.9535
 6523SOL    HW221011   0.670   1.252  11.329 -2.5347  0.4596  1.0651
 6524SOL     OW21012   1.136   4.616   7.976  0.4736  0.3465  0.8526
 6524SOL    HW121013   1.111   4.708   7.986 -1.5624  0.1954 -1.9107
 6524SOL    HW221014   1.123   4.578   8.063  1.3978  2.6035  2.0734
 6525SOL     OW21015   6.984   7.645   3.775 -1.0885  0.0483 -0.4084
 6525SOL    HW121016   6.908   7.684   3.731 -1.0471 -0.8339 -1.2848
 6525SOL    HW221017   7.012   7.573   3.718  0.8722  0.8049 -0.5094
 6526SOL     OW21018   5.974   2.136  11.182  0.3434  0.1713  0.4092
 6526SOL    HW121019   6.064   2.116  11.159  0.5234 -1.4731  2.3071
 6526SOL    HW221020   5.978   2.163  11.274 -0.8401  2.4212 -0.1015
 6527SOL     OW21021   2.055   1.255   2.749 -0.0981 -0.0251  0.5463
 6527SOL    HW121022   2.095   1.221   2.829  1.9448  0.9842  0.0224
 6527SOL    HW221023   2.073   1.188   2.682  2.0006  0.9696  0.0172
 6528SOL     OW21024   5.479   0.426   9.885 -0.7687 -0.1921 -0.8013
 6528SOL    HW121025   5.483   0.337   9.853 -1.0806 -0.5663  0.1609
 6528SOL    HW221026   5.468   0.417   9.980  1.1330  0.8488 -0.4224
 6529SOL     OW21027   1.972   7.832   9.560 -0.0366 -0.9224 -0.1816
 6529SOL    HW121028   2.016   7.763   9.610  1.1728  0.6237  0.9966
 6529SOL    HW221029   2.017   7.912   9.586 -2.2258  0.4881 -0.5370
 6530SOL     OW21030   4.901   1.021   1.842 -0.6503 -0.4828 -0.0221
 6530SOL    HW121031   4.833   0.987   1.901  1.2310 -0.8612  2.0481
 6530SOL    HW221032   4.889   1.116   1.844 -0.6754 -0.4901  0.9582
 6531SOL     OW21033   3.398   3.925   0.199  0.0824 -0.1700 -0.2675
 6531SOL    HW121034   3.428   3.889   0.281  2.3773  1.5442 -0.2502
 6531SOL    HW221035   3.476   3.928   0.143 -0.9007  0.8265 -1.6805
 6532SOL     OW21036   6.728   0.685  12.408 -0.0595  0.2778 -0.0152
 6532SOL    HW121037   6.721   0.751  12.476 -3.1716 -0.7754  0.8467
 6532SOL    HW221038   6.725   0.601  12.455  0.2810 -0.4784 -1.2831
 6533SOL     OW21039   3.667   2.339   2.025  0.3832 -0.2466  0.0801
 6533SOL    HW121040   3.746   2.309   2.070  0.4557 -0.2435 -0.0429
 6533SOL    HW221041   3.596   2.314   2.083  0.4320 -0.7931 -0.0832
 6534SOL     OW21042   3.485   5.979   0.337 -0.2952 -0.8056 -0.4025
 6534SOL    HW121043   3.406   5.959   0.286  1.4377 -3.2904 -2.4202
 6534SOL    HW221044   3.530   6.047   0.286  0.1349 -1.3662 -0.7955
 6535SOL     OW21045   3.505   5.438   3.331 -0.3664  0.3036 -0.2946
 6535SOL    HW121046   3.508   5.359   3.276 -2.2051 -1.2513  1.6843
 6535SOL    HW221047   3.592   5.442   3.371 -0.4666 -1.1535  0.1179
 6536SOL     OW21048   1.824   2.287   9.635  0.2134 -0.0175  0.2579
 6536SOL    HW121049   1.750   2.344   9.658  0.8014  0.6366  0.5708
 6536SOL    HW221050   1.800   2.201   9.670  0.8054  0.8014  2.8450
 6537SOL     OW21051   5.949   1.377   9.447  0.1437 -0.1896 -0.9083
 6537SOL    HW121052   5.926   1.289   9.477  0.4387  0.5896  1.9819
 6537SOL    HW221053   5.929   1.377   9.354 -0.7798 -3.0020 -0.8064
 6538SOL     OW21054   2.790   5.157   4.952 -0.1382  0.1689 -0.1898
 6538SOL    HW121055   2.782   5.178   4.859  2.1076 -0.2772 -0.5526
 6538SOL    HW221056   2.817   5.239   4.994  1.9770 -0.2913 -0.5123
 6539SOL     OW21057   1.389   2.147   6.566 -0.1206 -0.4195  0.3552
 6539SOL    HW121058   1.407   2.184   6.652  0.9012  1.6964 -0.7043
 6539SOL    HW221059   1.311   2.194   6.536  1.0561  0.7905 -0.9189
 6540SOL     OW21060   3.071   3.975  10.565 -0.2183  0.0125 -0.3176
 6540SOL    HW121061   3.165   3.991  10.565 -0.4922  1.7752  0.6097
 6540SOL    HW221062   3.042   4.000  10.477  0.1095 -0.2215 -0.4942
 6541SOL     OW21063   5.102   5.011   3.847  0.0240  0.3802  0.4379
 6541SOL    HW121064   5.158   5.037   3.774 -0.1236  2.5675  1.0148
 6541SOL    HW221065   5.013   5.024   3.815 -0.0509  0.7231  0.7666
 6542SOL     OW21066   0.792   6.717   2.926 -0.2400  0.1722 -0.0765
 6542SOL    HW121067   0.741   6.729   3.006  2.0493  0.6016  1.4179
 6542SOL    HW221068   0.810   6.806   2.896 -0.7168  0.0188 -0.8464
 6543SOL     OW21069   7.475   2.229   2.089  0.4762 -0.0538 -0.6904
 6543SOL    HW121070   7.541   2.253   2.153 -0.5250 -0.8750  0.6998
 6543SOL    HW221071   7.431   2.312   2.067  0.9217  0.2510 -0.4369
 6544SOL     OW21072   5.891   3.660   6.637  0.7422 -0.0434 -0.0834
 6544SOL    HW121073   5.864   3.570   6.651 -1.5281  0.5543 -0.1756
 6544SOL    HW221074   5.882   3.702   6.723  0.1511  0.4636 -0.3819
 6545SOL     OW21075   3.099   0.695  11.660  0.2426 -0.2709  0.2016
 6545SOL    HW121076   3.013   0.661  11.636 -0.2566 -0.1794  1.7524
 6545SOL    HW221077   3.108   0.674  11.752 -0.0017  3.4470  1.2598
 6546SOL     OW21078   4.804   6.872   0.234  0.5082  0.1861  0.0462
 6546SOL    HW121079   4.843   6.957   0.253 -1.4135  0.7929  1.7597
 6546SOL    HW221080   4.743   6.858   0.307 -0.9721 -1.5464 -1.4410
 6547SOL     OW21081   7.798   7.334   2.703  0.5081 -0.3312  0.7025
 6547SOL    HW121082   7.710   7.298   2.689  0.6817 -0.2863 -0.6155
 6547SOL    HW221083   7.794   7.422   2.666  1.2250 -0.4889  0.2379
 6548SOL     OW21084   4.041   4.217   0.179  0.1369 -0.3185 -0.0166
 6548SOL    HW121085   3.954   4.255   0.170 -0.2517 -1.3165 -0.7502
 6548SOL    HW221086   4.038   4.168   0.261  0.6297  1.1573  0.9138
 6549SOL     OW21087   6.502   6.578  10.010 -0.0074 -0.0301  0.3332
 6549SOL    HW121088   6.417   6.589   9.968  0.1453  1.3334  0.3454
 6549SOL    HW221089   6.553   6.654   9.982  1.0040 -0.5037  0.8222
 6550SOL     OW21090   6.019   0.455   5.903 -0.3074  0.6971  0.1962
 6550SOL    HW121091   6.076   0.390   5.944 -2.5951 -1.2566  0.5093
 6550SOL    HW221092   6.075   0.499   5.839  1.5722 -1.0004  0.5851
 6551SOL     OW21093   0.360   1.204  11.086 -0.2707 -0.0999  0.1270
 6551SOL    HW121094   0.424   1.154  11.034 -0.4752  0.0330 -0.2570
 6551SOL    HW221095   0.311   1.254  11.021 -0.3706  0.2540  0.4716
 6552SOL     OW21096   1.160   2.015  11.695  0.0771  0.7704  0.2722
 6552SOL    HW121097   1.109   1.957  11.752 -0.9711  0.9656 -0.4393
 6552SOL    HW221098   1.107   2.093  11.686 -0.4568  0.2136 -2.0479
 6553SOL     OW21099   1.379   6.083   8.012 -0.2523 -0.4286  0.2643
 6553SOL    HW121100   1.339   6.034   8.084 -0.3762 -0.7954 -0.0508
 6553SOL    HW221101   1.427   6.154   8.055 -1.2168  0.0109  0.6555
 6554SOL     OW21102   0.651   6.552   1.007  0.6226 -0.3358  0.3585
 6554SOL    HW121103   0.558   6.563   0.986  1.3633  0.0592 -3.4006
 6554SOL    HW221104   0.652   6.481   1.071 -2.2062 -1.5269 -0.7239
 6555SOL     OW21105   4.023   1.132   6.305  0.0277  0.2405 -0.4847
 6555SOL    HW121106   3.939   1.132   6.259 -0.8577  2.5457  0.9369
 6555SOL    HW221107   4.069   1.208   6.270  0.3074  0.6431  0.6835
 6556SOL     OW21108   2.633   1.499   6.019  0.1411 -0.1464 -0.2101
 6556SOL    HW121109   2.546   1.527   5.989 -0.3848 -1.2128  0.2649
 6556SOL    HW221110   2.672   1.579   6.054 -1.7569 -0.1095  2.1518
 6557SOL     OW21111   7.108   3.888  10.265  0.2149 -0.2658 -0.1518
 6557SOL    HW121112   7.074   3.807  10.228 -2.0674  0.7219 -0.3467
 6557SOL    HW221113   7.093   3.954  10.198 -1.9465  1.1236  1.5594
 6558SOL     OW21114   1.440   3.562   0.154  0.0408  0.2214  0.2411
 6558SOL    HW121115   1.413   3.553   0.062 -0.1816  3.2746 -0.0877
 6558SOL    HW221116   1.360   3.544   0.203 -0.1138 -0.3674 -0.2094
 6559SOL     OW21117   2.929   5.445   1.051  0.1696  0.0404 -0.2941
 6559SOL    HW121118   2.958   5.370   0.999 -0.7865 -0.3290 -0.3081
 6559SOL    HW221119   2.834   5.448   1.038  0.0538  0.5750  0.6027
 6560SOL     OW21120   1.096   6.240   2.241 -0.4980  0.3775  0.3086
 6560SOL    HW121121   1.004   6.264   2.254 -0.8214 -1.8861  3.3743
 6560SOL    HW221122   1.094   6.147   2.220  1.0718 -0.1501  2.1741
 6561SOL     OW21123   6.258   0.275   8.829 -0.1255 -0.0842  0.0541
 6561SOL    HW121124   6.196   0.252   8.898  0.5878  0.4763  0.9098
 6561SOL    HW221125   6.282   0.191   8.790 -2.1994 -0.2352 -1.0330
 6562SOL     OW21126   7.157   3.735   6.735  0.2652  0.3382  0.3138
 6562SOL    HW121127   7.098   3.693   6.673 -0.8180  0.1611  1.4435
 6562SOL    HW221128   7.218   3.785   6.679 -1.0061  0.6267 -0.8768
 6563SOL     OW21129   0.198   5.369   4.534 -0.1556  0.2983 -0.2662
 6563SOL    HW121130   0.218   5.458   4.563 -0.3779  0.4958 -0.6995
 6563SOL    HW221131   0.159   5.327   4.611  0.1217  0.5181 -0.0051
 6564SOL     OW21132   0.189   6.712   4.078  0.5173 -0.0082  0.2314
 6564SOL    HW121133   0.133   6.725   4.001  1.6608  1.0341 -0.4640
 6564SOL    HW221134   0.134   6.664   4.140 -1.1625  1.0264 -0.3903
 6565SOL     OW21135   4.737   7.778   9.958 -0.3571  0.2049  0.0812
 6565SOL    HW121136   4.652   7.818   9.978 -0.2030  0.2979  0.5721
 6565SOL    HW221137   4.789   7.850   9.922  0.1369  0.6476  1.5730
 6566SOL     OW21138   5.573   4.479   6.250 -0.1073  0.4586 -0.1739
 6566SOL    HW121139   5.520   4.471   6.171  1.3247 -0.8485 -1.0542
 6566SOL    HW221140   5.578   4.391   6.285 -0.3251  0.9436  1.1380
 6567SOL     OW21141   5.681   2.793   1.027  0.2156 -0.0264  0.6320
 6567SOL    HW121142   5.771   2.780   1.057  0.5447  1.6325  0.4646
 6567SOL    HW221143   5.638   2.838   1.100 -0.1746  0.1657  0.2834
 6568SOL     OW21144   7.639   6.110   7.547  0.0871  0.5661 -0.4399
 6568SOL    HW121145   7.558   6.119   7.497  0.1313  0.4482 -0.5327
 6568SOL    HW221146   7.687   6.040   7.502  0.1118  0.4370 -0.2124
 6569SOL     OW21147   4.537   3.339   1.685  0.0046  0.0105  0.4537
 6569SOL    HW121148   4.597   3.352   1.758 -0.4460  0.2713  0.7816
 6569SOL    HW221149   4.569   3.259   1.642  0.3541 -0.0661  0.8498
 6570SOL     OW21150   0.446   6.575   0.515 -0.0761  0.1357 -0.4503
 6570SOL    HW121151   0.433   6.648   0.576  0.1391  0.2172 -0.5019
 6570SOL    HW221152   0.468   6.501   0.570  1.4815  0.5164 -0.4991
 6571SOL     OW21153   0.571   6.105   8.734 -0.1824  0.8435 -0.1314
 6571SOL    HW121154   0.657   6.138   8.710  0.8689 -1.1298  0.6975
 6571SOL    HW221155   0.510   6.170   8.699  1.5219  1.4255 -2.2560
 6572SOL     OW21156   1.798   6.397   8.901 -0.2877 -0.6301  0.0479
 6572SOL    HW121157   1.889   6.380   8.925  0.1055 -3.6237 -2.8306
 6572SOL    HW221158   1.804   6.466   8.835 -0.2268 -0.1556  0.5431
 6573SOL     OW21159   4.850   6.946   9.088  0.1539 -0.0102 -0.0791
 6573SOL    HW121160   4.905   6.930   9.011  0.4951  1.0622 -0.0772
 6573SOL    HW221161   4.901   7.007   9.141  0.6759 -2.0416  1.8516
 6574SOL     OW21162   6.170   3.306   9.292  0.5248  0.0843  0.4913
 6574SOL    HW121163   6.244   3.343   9.340  0.3109  0.2930  0.6665
 6574SOL    HW221164   6.196   3.310   9.200  1.2555 -1.0204  0.6316
 6575SOL     OW21165   1.352   5.558   1.716  0.4663 -0.0189  0.1717
 6575SOL    HW121166   1.373   5.582   1.626  0.3023 -0.3977  0.0307
 6575SOL    HW221167   1.259   5.537   1.714  1.0651 -3.1567 -0.2887
 6576SOL     OW21168   0.493   3.772  10.522 -0.0148  0.3918 -0.4215
 6576SOL    HW121169   0.415   3.759  10.577  1.0700 -1.3393  0.8160
 6576SOL    HW221170   0.555   3.817  10.580 -0.0172  1.6402 -1.3577
 6577SOL     OW21171   4.361   1.714   3.488 -0.6812  0.0042  0.5930
 6577SOL    HW121172   4.286   1.655   3.486  1.6392 -3.1978 -0.3462
 6577SOL    HW221173   4.383   1.722   3.581 -2.2661  1.2449  0.9084
 6578SOL     OW21174   2.829   7.021   4.307 -0.3403 -0.0252 -0.0110
 6578SOL    HW121175   2.886   7.031   4.230 -1.2580  0.9704 -0.5942
 6578SOL    HW221176   2.867   6.948   4.355  0.4377 -0.4872 -1.2570
 6579SOL     OW21177   7.585   3.037   9.869 -0.0149  0.4255 -0.7850
 6579SOL    HW121178   7.591   3.077   9.782  0.1213  1.4737 -0.3015
 6579SOL    HW221179   7.624   3.102   9.928 -0.3035 -0.1879  0.0913
 6580SOL     OW21180   2.429   7.780   4.945 -0.3823  0.0896  0.1395
 6580SOL    HW121181   2.351   7.732   4.915 -0.0191  0.8499 -2.2564
 6580SOL    HW221182   2.394   7.854   4.996 -1.0489 -1.1509  1.5614
 6581SOL     OW21183   2.501   7.847   2.118  0.3984  0.7205  0.4452
 6581SOL    HW121184   2.452   7.929   2.116  1.3462  1.2997  0.4477
 6581SOL    HW221185   2.524   7.831   2.026 -1.8653 -0.8663  0.0556
 6582SOL     OW21186   7.133   7.624   1.532 -0.1572 -0.2636  0.1870
 6582SOL    HW121187   7.099   7.543   1.493 -2.5253  0.1119  1.2511
 6582SOL    HW221188   7.151   7.601   1.623  0.8901 -0.0146  0.0530
 6583SOL     OW21189   1.485   6.813   2.340  0.1494  0.4432 -0.4383
 6583SOL    HW121190   1.436   6.886   2.303 -0.7631  0.0298 -0.0783
 6583SOL    HW221191   1.500   6.838   2.431  0.7371  0.6282 -0.5831
 6584SOL     OW21192   1.352   7.022   3.427  0.3950 -0.1252 -0.0493
 6584SOL    HW121193   1.332   6.950   3.487  1.3927  0.5645  1.1663
 6584SOL    HW221194   1.412   6.983   3.363  2.6253  0.0135  1.7999
 6585SOL     OW21195   0.331   6.811  11.726  0.8348  0.2558 -0.6381
 6585SOL    HW121196   0.336   6.743  11.658  1.0746 -0.0266 -0.3411
 6585SOL    HW221197   0.280   6.881  11.686 -0.1645 -0.4608 -0.6339
 6586SOL     OW21198   0.829   6.395   5.680 -0.4082 -0.0699  0.3396
 6586SOL    HW121199   0.778   6.317   5.702  0.3474 -0.4830  0.6782
 6586SOL    HW221200   0.809   6.458   5.749  0.4166 -0.6468  1.1177
 6587SOL     OW21201   5.802   1.175   8.210  0.2312 -0.1511 -0.4978
 6587SOL    HW121202   5.778   1.254   8.161  0.6298 -0.0575 -0.5464
 6587SOL    HW221203   5.736   1.169   8.279  0.0118  0.0467 -0.6872
 6588SOL     OW21204   0.690   7.518   9.416  0.4893  0.2892 -0.2388
 6588SOL    HW121205   0.755   7.564   9.470 -0.2890 -0.1784  1.1462
 6588SOL    HW221206   0.683   7.572   9.337  0.5171  1.8836  0.7869
 6589SOL     OW21207   6.051   2.675   3.327  0.2327 -0.6235  0.0062
 6589SOL    HW121208   6.011   2.698   3.244 -0.9904  1.3785  1.0695
 6589SOL    HW221209   6.022   2.585   3.343  1.9610 -1.7018 -2.4937
 6590SOL     OW21210   2.803   0.045   8.319  0.4812 -0.1320 -0.4317
 6590SOL    HW121211   2.859   0.116   8.350 -0.9863  0.4162  1.1466
 6590SOL    HW221212   2.719   0.087   8.302  0.2017 -1.1289 -1.6743
 6591SOL     OW21213   7.677   6.893   6.676  0.5451 -0.1678  0.3289
 6591SOL    HW121214   7.732   6.818   6.655  0.2549 -0.0276 -1.0095
 6591SOL    HW221215   7.588   6.860   6.666  0.4181  0.4641 -0.7052
 6592SOL     OW21216   3.632   4.047  10.152  0.3872 -0.0889  0.5040
 6592SOL    HW121217   3.698   4.093  10.101 -1.3038  0.6578 -1.1412
 6592SOL    HW221218   3.575   4.007  10.086 -0.0084 -1.9015  1.8688
 6593SOL     OW21219   5.758   4.621   2.329 -0.9428 -0.3228  0.4006
 6593SOL    HW121220   5.739   4.544   2.383 -0.6983 -1.5884 -1.2326
 6593SOL    HW221221   5.755   4.588   2.239 -0.5290  1.5275 -0.3284
 6594SOL     OW21222   0.799   0.224   4.324 -0.2843 -0.1778  0.0702
 6594SOL    HW121223   0.712   0.199   4.293 -1.0320  1.3430  0.8308
 6594SOL    HW221224   0.857   0.158   4.287 -1.5897 -0.5042 -1.5265
 6595SOL     OW21225   1.872   3.494   2.527  0.3806  0.9267  0.0070
 6595SOL    HW121226   1.795   3.466   2.478 -0.2226  1.7404  0.4805
 6595SOL    HW221227   1.839   3.522   2.612  1.3709 -0.1081  0.7756
 6596SOL     OW21228   2.414   5.823  10.421 -0.2850  0.0902 -0.1419
 6596SOL    HW121229   2.416   5.768  10.499  0.2581  1.0266  0.5209
 6596SOL    HW221230   2.433   5.911  10.453 -1.4546  0.7356 -1.1251
 6597SOL     OW21231   0.970   6.999   0.622 -0.0620  0.2427 -0.5984
 6597SOL    HW121232   1.028   7.025   0.693 -0.5895 -0.8955  0.2888
 6597SOL    HW221233   0.913   7.075   0.608  1.0842  1.0689 -0.9346
 6598SOL     OW21234   0.873   6.371   7.672 -0.1398 -0.4134 -0.4392
 6598SOL    HW121235   0.945   6.310   7.689  1.1991  0.8680 -1.2149
 6598SOL    HW221236   0.797   6.316   7.656  1.3117 -1.9680 -2.5035
 6599SOL     OW21237   6.625   4.860   4.517  0.3310  0.1875  0.0843
 6599SOL    HW121238   6.550   4.915   4.496  0.7249  0.5359 -0.4365
 6599SOL    HW221239   6.669   4.906   4.590 -1.2574 -1.2241  2.0442
 6600SOL     OW21240   2.306   6.171   8.990 -0.3645 -0.1588 -0.2113
 6600SOL    HW121241   2.349   6.100   8.942 -1.0931 -0.5750 -0.2529
 6600SOL    HW221242   2.267   6.226   8.923 -2.2411 -1.2848 -0.0933
 6601SOL     OW21243   3.151   0.353   2.661 -0.4402  0.3136 -0.4882
 6601SOL    HW121244   3.177   0.326   2.573  2.1044 -0.0908  0.2904
 6601SOL    HW221245   3.222   0.411   2.690 -1.8574  1.4496  0.8359
 6602SOL     OW21246   4.972   4.796  10.857  0.1080 -0.5827  0.3442
 6602SOL    HW121247   5.009   4.884  10.848 -1.4504  0.0257 -0.6053
 6602SOL    HW221248   4.949   4.770  10.768 -0.8930 -1.2740  0.7780
 6603SOL     OW21249   3.963   7.671   1.304  0.4009  0.4800 -0.0733
 6603SOL    HW121250   4.026   7.727   1.258  0.7751  0.6257  0.5941
 6603SOL    HW221251   3.879   7.715   1.294  0.8911  1.8949  1.5531
 6604SOL     OW21252   1.373   7.575   6.311  0.7586  0.1022  0.0648
 6604SOL    HW121253   1.320   7.653   6.330  1.3310  0.7461 -0.8824
 6604SOL    HW221254   1.458   7.610   6.283  1.0554 -0.8676 -0.2913
 6605SOL     OW21255   1.857   7.806  10.090 -0.2621  0.4475  0.4312
 6605SOL    HW121256   1.946   7.790  10.121  0.1695  2.7212  0.5332
 6605SOL    HW221257   1.829   7.722  10.053  2.4926  0.0476 -0.9898
 6606SOL     OW21258   4.018   7.633   8.030 -0.0270  0.2634 -0.2076
 6606SOL    HW121259   4.072   7.561   8.063  1.0509  0.7341 -0.9047
 6606SOL    HW221260   3.976   7.669   8.108 -0.6112 -1.1251  0.1521
 6607SOL     OW21261   3.407   1.788   6.385 -0.2883  0.3568  0.3207
 6607SOL    HW121262   3.470   1.846   6.341  0.7784  0.4283  1.8791
 6607SOL    HW221263   3.460   1.716   6.419 -1.3206 -0.5068  0.1531
 6608SOL     OW21264   0.313   6.252   2.782  0.4511 -1.0165  0.4947
 6608SOL    HW121265   0.337   6.341   2.808  2.2426 -0.9806 -1.0772
 6608SOL    HW221266   0.220   6.246   2.803 -0.1931  1.8565 -0.9617
 6609SOL     OW21267   5.115   3.241  10.171 -0.1737 -0.0203  0.1153
 6609SOL    HW121268   5.164   3.172  10.215 -0.1110 -0.5655 -0.7855
 6609SOL    HW221269   5.036   3.251  10.224 -0.1293 -0.7054  0.3214
 6610SOL     OW21270   2.084   5.806   1.697 -0.6463 -0.1128 -0.1341
 6610SOL    HW121271   2.066   5.868   1.768 -0.3578  0.4306 -0.5241
 6610SOL    HW221272   2.180   5.799   1.695 -0.6414  0.0709 -0.6312
 6611SOL     OW21273   6.389   5.289   5.621 -0.8155 -0.9663 -0.0508
 6611SOL    HW121274   6.403   5.217   5.683 -0.0279 -0.2685  0.6018
 6611SOL    HW221275   6.302   5.324   5.643 -0.2215 -0.2236  1.2079
 6612SOL     OW21276   6.748   3.120  10.770 -0.2954 -0.6907  0.0397
 6612SOL    HW121277   6.689   3.111  10.696 -0.0928 -1.2607 -0.0574
 6612SOL    HW221278   6.758   3.031  10.804  1.2697 -0.7752 -0.5546
 6613SOL     OW21279   4.369   7.566   0.859 -0.1784  0.5331  0.1921
 6613SOL    HW121280   4.373   7.505   0.785 -1.1387 -0.4798  0.9427
 6613SOL    HW221281   4.326   7.644   0.823 -0.4613  0.1270 -0.3693
 6614SOL     OW21282   4.963   5.519   5.251 -0.1208 -0.5946 -0.0128
 6614SOL    HW121283   4.946   5.426   5.261 -1.8301 -0.1903  1.2626
 6614SOL    HW221284   4.954   5.555   5.339 -1.1281  1.0079 -0.7273
 6615SOL     OW21285   5.645   2.967   4.517  0.0635 -0.3753 -0.1370
 6615SOL    HW121286   5.731   3.005   4.534  0.8016 -1.4325 -1.2757
 6615SOL    HW221287   5.635   2.899   4.583  0.5665 -0.9188 -0.6051
 6616SOL     OW21288   4.433   0.563   6.751  0.6987  0.2262 -0.4050
 6616SOL    HW121289   4.414   0.656   6.737 -2.9101 -0.2403  0.4606
 6616SOL    HW221290   4.441   0.554   6.846  2.1906 -0.2030 -0.5537
 6617SOL     OW21291   2.631   3.730  10.244 -0.1957  0.1270 -0.0882
 6617SOL    HW121292   2.539   3.740  10.220 -0.1579  1.5098  0.2385
 6617SOL    HW221293   2.640   3.638  10.269 -1.6638  0.1411  0.5787
 6618SOL     OW21294   4.809   4.435  12.235 -0.1354 -0.2017  0.3561
 6618SOL    HW121295   4.809   4.478  12.321 -1.4023  1.5880 -0.4860
 6618SOL    HW221296   4.846   4.501  12.176  0.0268 -1.1487 -0.6114
 6619SOL     OW21297   3.827   7.929   5.791 -0.4567  0.0624  0.3302
 6619SOL    HW121298   3.806   7.897   5.878 -0.7304 -0.4491  0.0812
 6619SOL    HW221299   3.922   7.937   5.790 -0.5382  1.5655  1.1845
 6620SOL     OW21300   7.715   6.450   9.859  0.3538  0.2514  0.1922
 6620SOL    HW121301   7.707   6.382   9.793  0.7584  0.1451  0.2502
 6620SOL    HW221302   7.693   6.406   9.942 -0.4344  0.4536  0.0973
 6621SOL     OW21303   6.011   1.156   0.040  0.0644 -0.7244 -0.0240
 6621SOL    HW121304   6.010   1.165   0.135 -0.7004 -1.8407  0.1015
 6621SOL    HW221305   5.920   1.138   0.016  0.5076 -2.2439 -0.7455
 6622SOL     OW21306   7.684   5.583  11.545 -0.4350  0.2822 -0.8876
 6622SOL    HW121307   7.776   5.564  11.527 -0.0236  0.1984  1.1116
 6622SOL    HW221308   7.636   5.520  11.491  0.6922 -0.0846 -1.4936
 6623SOL     OW21309   3.623   2.747   1.513 -0.3435  0.3471 -0.3671
 6623SOL    HW121310   3.658   2.741   1.602 -0.4336  1.1704 -0.2710
 6623SOL    HW221311   3.597   2.657   1.492 -2.0525  0.4357  1.1469
 6624SOL     OW21312   4.109   0.602  10.855  0.1807  0.1244  0.1316
 6624SOL    HW121313   4.015   0.588  10.872  0.3329 -0.0937  0.8130
 6624SOL    HW221314   4.144   0.633  10.938  0.4688  1.5155 -0.4773
 6625SOL     OW21315   7.292   6.834   2.565  0.2589 -0.5008 -0.2712
 6625SOL    HW121316   7.212   6.810   2.518 -0.4542 -1.0693  1.1747
 6625SOL    HW221317   7.269   6.912   2.615  0.5577 -0.7607  0.2810
 6626SOL     OW21318   4.371   5.725   6.549 -0.4721 -0.3149  0.1060
 6626SOL    HW121319   4.458   5.735   6.588  0.8548 -3.7528 -1.5305
 6626SOL    HW221320   4.366   5.795   6.483  0.0479  1.2883  1.6941
 6627SOL     OW21321   4.278   6.222   1.310 -0.1654 -0.2033  0.0160
 6627SOL    HW121322   4.194   6.175   1.312 -0.4007  0.0634 -1.7728
 6627SOL    HW221323   4.342   6.155   1.287 -0.0247 -0.2413  0.5200
 6628SOL     OW21324   5.522   3.077   6.575  0.0120 -0.3098 -0.1776
 6628SOL    HW121325   5.590   3.009   6.579  1.1194  0.8194  1.5863
 6628SOL    HW221326   5.449   3.042   6.625 -1.5685 -2.2613 -3.4718
 6629SOL     OW21327   2.413   2.357   6.858 -0.1252 -0.0380  0.5027
 6629SOL    HW121328   2.387   2.280   6.909 -0.3000 -0.9022 -0.8340
 6629SOL    HW221329   2.367   2.347   6.775  0.1099  1.3578  0.1817
 6630SOL     OW21330   2.500   2.378  11.551 -0.2425 -0.6349 -0.6352
 6630SOL    HW121331   2.425   2.355  11.606 -0.1024 -2.5768 -1.1574
 6630SOL    HW221332   2.576   2.348  11.601  0.0049 -0.8575 -1.1316
 6631SOL     OW21333   3.581   1.643   0.577 -0.7454 -0.1853 -0.6732
 6631SOL    HW121334   3.531   1.592   0.641 -1.7408  1.0520 -0.4406
 6631SOL    HW221335   3.556   1.606   0.492 -0.1120 -1.2278 -0.4283
 6632SOL     OW21336   1.120   0.018   5.438  0.0052 -0.3335 -0.3186
 6632SOL    HW121337   1.055  -0.048   5.460  0.9391 -1.3562 -0.5736
 6632SOL    HW221338   1.173  -0.021   5.369  1.1544  0.3098  0.1608
 6633SOL     OW21339   3.353   2.833  11.371 -0.5902 -0.3430 -0.1810
 6633SOL    HW121340   3.382   2.747  11.401  0.7186  0.5751  1.3064
 6633SOL    HW221341   3.363   2.830  11.276  1.2723 -1.1960  0.0123
 6634SOL     OW21342   5.614   1.858   3.534 -0.1233 -0.3148 -0.1132
 6634SOL    HW121343   5.694   1.809   3.551  0.1539  0.8077  2.0510
 6634SOL    HW221344   5.543   1.797   3.556  0.1600 -0.6596 -0.1508
 6635SOL     OW21345   1.278   7.167   1.757 -0.1377  0.2049 -0.4903
 6635SOL    HW121346   1.333   7.100   1.717 -1.0112 -0.5569 -0.4320
 6635SOL    HW221347   1.283   7.241   1.696 -0.5822 -0.5483 -1.4775
 6636SOL     OW21348   2.337   2.469   4.369  0.5559  0.1188  0.1985
 6636SOL    HW121349   2.325   2.404   4.439  0.5969  0.3420  0.4154
 6636SOL    HW221350   2.357   2.550   4.415  0.2254  0.3505 -0.0629
 6637SOL     OW21351   1.439   0.304   9.825 -0.0021  0.1440  0.3323
 6637SOL    HW121352   1.380   0.367   9.868  0.0629 -0.7440  1.8049
 6637SOL    HW221353   1.524   0.348   9.824 -0.7496  1.7645 -2.5299
 6638SOL     OW21354   5.930   5.711   7.320 -0.0872  0.8242  0.2887
 6638SOL    HW121355   5.984   5.646   7.275 -0.3285 -0.0259  1.1964
 6638SOL    HW221356   5.889   5.761   7.249  0.6106  0.4214 -0.4223
 6639SOL     OW21357   1.622   6.081   9.772 -0.8405 -0.7431  0.2483
 6639SOL    HW121358   1.571   6.001   9.756 -1.5002  0.0437 -1.8513
 6639SOL    HW221359   1.637   6.118   9.685  1.9084 -0.0308  0.9387
 6640SOL     OW21360   0.465   7.507   9.969  0.5298 -0.0182 -0.2846
 6640SOL    HW121361   0.476   7.572   9.900 -0.3049 -0.9998 -1.4020
 6640SOL    HW221362   0.553   7.488  10.000  0.7751  1.7127  0.1613
 6641SOL     OW21363   7.045   7.013  10.100  0.2895 -0.3222 -0.4751
 6641SOL    HW121364   6.957   7.042  10.126  0.8869  0.4145  0.8439
 6641SOL    HW221365   7.041   7.005  10.005 -0.9637  0.5391 -0.5124
 6642SOL     OW21366   5.207   1.644   1.685  0.1057  0.0910 -0.0240
 6642SOL    HW121367   5.119   1.670   1.657 -0.5197 -0.6390  1.1873
 6642SOL    HW221368   5.232   1.709   1.750  1.3758  1.5222 -1.8192
 6643SOL     OW21369   7.467   1.057   0.401 -0.7162 -0.1663  0.4442
 6643SOL    HW121370   7.431   1.068   0.313 -0.7334  0.0115  0.4730
 6643SOL    HW221371   7.538   0.993   0.390 -1.1563 -0.6510  0.4239
 6644SOL     OW21372   3.574   4.857   5.020 -0.2230  0.4716 -0.0579
 6644SOL    HW121373   3.586   4.775   4.971 -2.0702 -0.0687  0.2778
 6644SOL    HW221374   3.597   4.834   5.110 -1.0080  0.2146  0.0878
 6645SOL     OW21375   5.130   0.038   2.471  0.0414 -0.6667  0.2721
 6645SOL    HW121376   5.047  -0.007   2.485  0.7214 -2.1227 -0.1157
 6645SOL    HW221377   5.189  -0.000   2.536  0.3853  0.4622  0.6468
 6646SOL     OW21378   1.660   7.740  11.991 -0.7622 -0.0972  0.1769
 6646SOL    HW121379   1.690   7.735  11.900  0.8605  1.9245  0.5254
 6646SOL    HW221380   1.655   7.648  12.019  0.5317 -0.7103 -1.3970
 6647SOL     OW21381   7.871   6.369  11.713 -0.1191 -0.3778 -0.6087
 6647SOL    HW121382   7.830   6.301  11.660  0.3631 -0.8790 -0.3431
 6647SOL    HW221383   7.805   6.391  11.779  0.0798 -1.2824 -0.0959
 6648SOL     OW21384   0.363   0.632   0.001 -0.5026 -0.1739  0.2701
 6648SOL    HW121385   0.327   0.720  -0.006 -1.8017 -0.6615  0.5013
 6648SOL    HW221386   0.413   0.632   0.082 -0.0465  0.4949 -0.0046
 6649SOL     OW21387   4.317   2.953   1.104 -0.0472  0.0288  0.4617
 6649SOL    HW121388   4.382   2.904   1.054 -1.8420  0.1731 -2.2369
 6649SOL    HW221389   4.275   3.010   1.039 -1.6279  1.2490  2.4367
 6650SOL     OW21390   2.197   3.236   0.693  0.2973 -0.4793 -0.0305
 6650SOL    HW121391   2.224   3.322   0.661  1.9086 -0.6370  0.7888
 6650SOL    HW221392   2.169   3.189   0.615  0.6122  0.3610 -0.6688
 6651SOL     OW21393   7.438   6.264   8.407 -0.2462 -0.0582  0.2154
 6651SOL    HW121394   7.517   6.210   8.411 -0.3007 -0.3173 -1.6175
 6651SOL    HW221395   7.402   6.259   8.496 -0.0697 -2.7899  0.2396
 6652SOL     OW21396   2.884   1.509   4.060 -0.9092  0.2828 -0.0738
 6652SOL    HW121397   2.810   1.570   4.064 -2.0898 -0.9642 -1.3748
 6652SOL    HW221398   2.961   1.562   4.080 -2.0997  1.7219  0.9110
 6653SOL     OW21399   4.887   5.083   0.241  0.8451 -1.1069  0.5013
 6653SOL    HW121400   4.814   5.094   0.301  0.4857  0.4342 -0.1449
 6653SOL    HW221401   4.856   5.123   0.159  1.8117 -1.9266 -0.2918
 6654SOL     OW21402   4.745   6.803   7.503 -0.2885  0.3509 -0.0562
 6654SOL    HW121403   4.694   6.883   7.515  0.2166  0.6718 -0.0112
 6654SOL    HW221404   4.681   6.732   7.504 -0.5510  0.5637  2.0259
 6655SOL     OW21405   1.095   5.895   3.122  0.3603 -0.2821 -0.3508
 6655SOL    HW121406   1.102   5.849   3.206 -0.0787 -1.5602 -0.9733
 6655SOL    HW221407   1.184   5.924   3.102  0.4524  0.1053  0.5889
 6656SOL     OW21408   5.679   4.601  10.308  0.1639 -0.0856  0.0229
 6656SOL    HW121409   5.591   4.579  10.279  0.4509 -1.7590  0.3253
 6656SOL    HW221410   5.724   4.629  10.228 -0.7847  1.4407 -0.0267
 6657SOL     OW21411   1.933   7.642   0.603 -0.1054 -0.1369 -0.2677
 6657SOL    HW121412   1.966   7.584   0.534 -0.0508 -0.3581 -0.0578
 6657SOL    HW221413   1.876   7.586   0.656  0.4766 -0.1855  0.3315
 6658SOL     OW21414   5.183   6.956   2.788 -0.0247 -0.2939  0.0992
 6658SOL    HW121415   5.209   6.995   2.704 -1.7507 -0.8568 -0.7504
 6658SOL    HW221416   5.262   6.960   2.842  1.1184  0.1539 -1.5231
 6659SOL     OW21417   7.083   4.020   5.327 -0.4577 -0.5715 -0.3606
 6659SOL    HW121418   7.109   4.112   5.325 -3.4360  0.4037  0.3376
 6659SOL    HW221419   7.158   3.975   5.365  0.4739  1.8189  0.8726
 6660SOL     OW21420   7.226   2.708   8.450 -0.1204 -0.6142 -0.2425
 6660SOL    HW121421   7.278   2.651   8.395  0.6163 -0.0240 -0.1741
 6660SOL    HW221422   7.148   2.727   8.398  0.1252 -0.8323 -0.6912
 6661SOL     OW21423   3.963   6.129   5.988  0.2196  0.4168 -0.1473
 6661SOL    HW121424   4.036   6.191   5.982  0.6877  0.0161  1.1071
 6661SOL    HW221425   4.004   6.043   5.978 -0.5072  0.2812 -2.4963
 6662SOL     OW21426   5.294   5.618  10.363  0.8298  0.4156 -0.4996
 6662SOL    HW121427   5.375   5.585  10.325  0.7724  1.2311 -1.3790
 6662SOL    HW221428   5.259   5.677  10.296 -0.3260  0.3186 -0.0030
 6663SOL     OW21429   5.147   2.688   8.129  0.8641 -0.0828  0.1684
 6663SOL    HW121430   5.061   2.652   8.149  0.5402 -0.3406 -1.5367
 6663SOL    HW221431   5.159   2.758   8.193 -0.7583  0.1799  0.2315
 6664SOL     OW21432   6.509   3.961  11.211  0.0902 -0.4566  0.5815
 6664SOL    HW121433   6.567   3.890  11.183  0.5611 -0.0009  0.3805
 6664SOL    HW221434   6.524   4.031  11.147  1.2472  0.6452  1.9637
 6665SOL     OW21435   4.464   2.270  11.898 -0.1096 -0.2409  0.7248
 6665SOL    HW121436   4.469   2.303  11.987  0.3035 -1.4569  1.1813
 6665SOL    HW221437   4.418   2.338  11.849  0.8957  1.0672  1.5466
 6666SOL     OW21438   4.408   4.570   6.204 -0.2684  0.1789 -0.3898
 6666SOL    HW121439   4.470   4.566   6.277 -2.0739  1.8001  1.3945
 6666SOL    HW221440   4.388   4.664   6.195 -3.8791 -0.3212  0.5552
 6667SOL     OW21441   4.416   2.417   9.568 -0.0294  0.5962  0.4111
 6667SOL    HW121442   4.426   2.353   9.639  0.3741 -0.0652 -0.2292
 6667SOL    HW221443   4.323   2.438   9.566 -0.5266 -1.5169 -0.6853
 6668SOL     OW21444   1.038   6.997  12.282  0.7508 -0.7877  0.1109
 6668SOL    HW121445   1.015   7.009  12.189 -0.3984  0.1595  0.4940
 6668SOL    HW221446   1.087   7.075  12.304  0.3151 -0.6235  0.5082
 6669SOL     OW21447   4.382   5.889   4.102 -0.0944  0.2391  0.1491
 6669SOL    HW121448   4.321   5.823   4.071  0.5130 -0.1425 -0.2606
 6669SOL    HW221449   4.364   5.967   4.049  0.5755 -0.2424 -0.8122
 6670SOL     OW21450   2.787   6.596   6.531 -0.0386  0.2062 -0.0648
 6670SOL    HW121451   2.773   6.549   6.449 -3.1415 -0.6225  0.7981
 6670SOL    HW221452   2.833   6.534   6.588 -0.5598 -0.3106 -0.2128
 6671SOL     OW21453   0.695   7.695   6.685 -0.2419 -0.6598  0.0509
 6671SOL    HW121454   0.718   7.602   6.683 -1.7844 -1.0631 -0.5886
 6671SOL    HW221455   0.668   7.715   6.596 -1.8441 -0.1482  0.6104
 6672SOL     OW21456   5.070   1.239   2.319 -0.0390 -0.2245  0.3186
 6672SOL    HW121457   5.107   1.326   2.331 -0.2611  0.0025 -0.5373
 6672SOL    HW221458   5.092   1.191   2.399  1.0171  0.2793  0.3395
 6673SOL     OW21459   0.562   6.397   6.728  0.7468 -0.2201 -0.2347
 6673SOL    HW121460   0.579   6.342   6.805  1.3175  0.1365 -0.0960
 6673SOL    HW221461   0.635   6.459   6.727  0.1602  0.4764 -0.4396
 6674SOL     OW21462   6.945   0.854   2.783  0.3914 -0.2450  0.0087
 6674SOL    HW121463   6.988   0.784   2.833 -0.2979 -0.5230  0.2325
 6674SOL    HW221464   6.996   0.932   2.803  0.0072 -0.3065  1.3439
 6675SOL     OW21465   5.754   0.251  11.525 -0.2164 -0.3638  0.4009
 6675SOL    HW121466   5.840   0.234  11.487  0.0062 -0.6050  0.9974
 6675SOL    HW221467   5.742   0.345  11.515 -0.5020 -0.5181 -0.9528
 6676SOL     OW21468   7.900   1.581   0.564 -0.0045  0.4713  0.7258
 6676SOL    HW121469   7.989   1.613   0.576 -0.1320  0.5569  1.4717
 6676SOL    HW221470   7.865   1.633   0.491  0.2804  1.0031  0.9714
 6677SOL     OW21471   5.515   2.320   6.439 -0.0234 -0.2950 -0.3187
 6677SOL    HW121472   5.589   2.278   6.395 -0.4749 -1.8628  0.3565
 6677SOL    HW221473   5.503   2.269   6.519 -1.9017 -0.1270 -0.4642
 6678SOL     OW21474   3.252   5.869   9.960 -0.0988 -0.0936  0.8039
 6678SOL    HW121475   3.237   5.915  10.043 -1.4604  1.7727 -0.3960
 6678SOL    HW221476   3.318   5.921   9.915  0.9693 -1.3535  0.8611
 6679SOL     OW21477   3.245   0.397   8.024  0.8367 -0.0542  0.2911
 6679SOL    HW121478   3.323   0.396   7.968 -1.0400 -1.0062 -2.5511
 6679SOL    HW221479   3.186   0.334   7.983 -1.5725  0.8770  2.1029
 6680SOL     OW21480   5.935   3.905  10.179  0.0337  0.2242 -0.2858
 6680SOL    HW121481   5.964   3.956  10.104 -2.6828  1.3839 -0.6938
 6680SOL    HW221482   5.840   3.922  10.184 -0.4754 -2.4763  1.3809
 6681SOL     OW21483   0.761   5.289   6.812 -0.1049  0.2236 -0.0314
 6681SOL    HW121484   0.747   5.300   6.718 -0.8942 -0.6454 -0.0306
 6681SOL    HW221485   0.843   5.239   6.818  0.0960  0.5238 -0.2411
 6682SOL     OW21486   0.775   6.491  10.686  0.1308  0.1428 -0.3593
 6682SOL    HW121487   0.775   6.399  10.711 -2.2601 -0.1997 -1.2906
 6682SOL    HW221488   0.690   6.524  10.717 -0.5080  1.1398 -2.9400
 6683SOL     OW21489   5.966   4.294   3.198  0.7195  0.1369 -0.3256
 6683SOL    HW121490   5.968   4.352   3.122  1.7041  1.5324  0.7045
 6683SOL    HW221491   5.900   4.333   3.256 -2.5944 -2.7971 -1.7517
 6684SOL     OW21492   5.027   7.328   7.727 -0.0127 -0.6549  0.1911
 6684SOL    HW121493   5.081   7.303   7.802  1.1639  0.5263 -0.2105
 6684SOL    HW221494   5.058   7.416   7.704  0.2914 -1.3172 -2.2200
 6685SOL     OW21495   7.421   3.895   2.514  0.0467  0.3206  0.0544
 6685SOL    HW121496   7.492   3.915   2.576 -0.1140  1.6401 -0.1782
 6685SOL    HW221497   7.351   3.956   2.536 -0.9549 -0.7960  0.1106
 6686SOL     OW21498   3.244   2.094   5.200  0.1461  0.0455 -0.3409
 6686SOL    HW121499   3.150   2.074   5.206  0.1034  0.4798  0.5677
 6686SOL    HW221500   3.287   2.009   5.210 -0.1418 -0.1336 -0.5993
 6687SOL     OW21501   5.263   0.612   1.264  0.0608  0.0349  0.2929
 6687SOL    HW121502   5.233   0.528   1.228 -1.4046  0.6889 -0.0656
 6687SOL    HW221503   5.281   0.666   1.187  1.4168 -0.0582  0.5148
 6688SOL     OW21504   1.170   3.057   1.346 -0.4201  0.2481 -0.3180
 6688SOL    HW121505   1.123   2.975   1.366  0.9833 -0.5626 -0.2544
 6688SOL    HW221506   1.120   3.124   1.392 -0.5267 -0.8249  1.2112
 6689SOL     OW21507   5.080   3.788   8.441  0.0321  0.7349 -0.1384
 6689SOL    HW121508   4.985   3.774   8.444 -0.2276  2.4547  0.6441
 6689SOL    HW221509   5.117   3.701   8.457 -1.4035  0.1530  0.2126
 6690SOL     OW21510   0.833   6.200   8.682  0.8402  0.8706  0.3470
 6690SOL    HW121511   0.908   6.142   8.699 -0.6116 -1.2912 -0.2299
 6690SOL    HW221512   0.854   6.243   8.599  0.1194 -2.1974 -1.5817
 6691SOL     OW21513   5.516   5.623  11.726 -0.5072 -0.1248  0.2938
 6691SOL    HW121514   5.476   5.614  11.813 -0.2649  0.2359  0.4497
 6691SOL    HW221515   5.514   5.718  11.710 -1.7196 -0.2913 -0.6575
 6692SOL     OW21516   0.850   7.375   5.769 -0.1207  0.0985 -0.2479
 6692SOL    HW121517   0.932   7.415   5.796 -0.3381  0.6830 -0.4296
 6692SOL    HW221518   0.848   7.387   5.674 -0.5838  0.4338 -0.2047
 6693SOL     OW21519   6.084   5.215   4.643  0.5275 -0.2719 -0.2292
 6693SOL    HW121520   6.010   5.179   4.692 -0.3538  4.4316  2.5196
 6693SOL    HW221521   6.161   5.176   4.684 -0.3116 -1.7593  0.0007
 6694SOL     OW21522   2.785   0.630   4.988 -0.0986 -0.6863  0.2739
 6694SOL    HW121523   2.748   0.620   4.900  1.2994  0.5974 -0.5165
 6694SOL    HW221524   2.728   0.693   5.031  2.3124  3.2332 -1.7854
 6695SOL     OW21525   0.046   5.333   8.381  0.3726  0.5175  0.1013
 6695SOL    HW121526   0.024   5.265   8.318 -0.1589 -0.0968  0.9219
 6695SOL    HW221527   0.075   5.408   8.328 -0.0810  0.0250 -0.8543
 6696SOL     OW21528   3.937   1.269   7.400  0.0174 -0.1603  0.1651
 6696SOL    HW121529   3.944   1.356   7.439 -0.1580  0.1530 -0.4866
 6696SOL    HW221530   4.006   1.266   7.334 -0.6596 -0.1203 -0.5527
 6697SOL     OW21531   3.225   5.953  11.894 -0.0468 -0.0501 -0.2859
 6697SOL    HW121532   3.138   5.962  11.932  0.3985  0.9869  0.5425
 6697SOL    HW221533   3.239   5.858  11.889 -0.2246 -0.2728  2.0074
 6698SOL     OW21534   3.129   5.851   7.244 -0.0125 -0.0880  0.0300
 6698SOL    HW121535   3.141   5.945   7.249 -1.0118  0.0066  1.0401
 6698SOL    HW221536   3.075   5.829   7.320  0.6609 -1.5479  0.1306
 6699SOL     OW21537   5.599   4.539   3.390  0.2635 -0.4602 -0.5378
 6699SOL    HW121538   5.662   4.470   3.412  0.3306 -0.2469 -0.0608
 6699SOL    HW221539   5.587   4.588   3.471  0.8679  0.6320 -1.0857
 6700SOL     OW21540   2.011   2.613   1.427  0.3323 -0.2298  0.2257
 6700SOL    HW121541   2.091   2.567   1.450  0.1450 -0.0803  1.1970
 6700SOL    HW221542   1.970   2.557   1.361  2.0964  0.5667 -1.6837
 6701SOL     OW21543   4.808   2.418   6.974  0.3508 -1.2156  0.2037
 6701SOL    HW121544   4.761   2.495   7.006 -1.8573 -2.5552  0.3771
 6701SOL    HW221545   4.757   2.388   6.899  2.3807 -1.3221 -1.2109
 6702SOL     OW21546   3.996   0.424  12.223  0.3447 -0.0136 -0.0729
 6702SOL    HW121547   3.932   0.370  12.271 -0.4036 -0.4804 -1.5462
 6702SOL    HW221548   4.055   0.360  12.184 -0.5602  0.1977 -1.8542
 6703SOL     OW21549   3.568   5.056   2.172 -0.2175  0.0625  0.3755
 6703SOL    HW121550   3.511   5.131   2.188 -1.0810 -0.9593  2.4205
 6703SOL    HW221551   3.610   5.039   2.256  3.0435  0.6202 -0.9971
 6704SOL     OW21552   7.840   5.447   3.483  0.0505 -0.0081  0.9730
 6704SOL    HW121553   7.800   5.443   3.396  0.0542  0.2625  0.9555
 6704SOL    HW221554   7.845   5.541   3.502 -1.6951 -0.1093  2.0747
 6705SOL     OW21555   4.055   0.310   9.806 -0.1078  0.0922 -0.1506
 6705SOL    HW121556   4.120   0.299   9.876  0.8143  3.1787 -0.3709
 6705SOL    HW221557   4.107   0.322   9.727 -0.7574  3.1661 -0.2544
 6706SOL     OW21558   1.093   3.125   8.118 -0.3291  0.1709 -0.4800
 6706SOL    HW121559   1.184   3.147   8.139 -0.3218 -1.0571  0.8692
 6706SOL    HW221560   1.099   3.055   8.054 -0.3144 -0.2498 -0.0221
 6707SOL     OW21561   6.829   1.891   3.779  0.2474 -0.7532 -0.6572
 6707SOL    HW121562   6.774   1.948   3.725  0.5512 -0.1003 -0.2949
 6707SOL    HW221563   6.769   1.824   3.812 -0.6715  0.7829  0.9349
 6708SOL     OW21564   3.021   6.977  10.854 -0.4132 -0.1306  0.2745
 6708SOL    HW121565   3.103   6.933  10.831 -1.2093 -1.5686  0.0170
 6708SOL    HW221566   2.994   7.020  10.773  0.1214  0.4172  0.3839
 6709SOL     OW21567   4.652   0.835  10.815  0.0790  0.3605  0.6937
 6709SOL    HW121568   4.651   0.900  10.744 -0.1619  1.9023  2.0550
 6709SOL    HW221569   4.612   0.880  10.889 -1.1938 -1.7511  1.3735
 6710SOL     OW21570   7.823   2.459   1.564  0.5276  0.6575  0.1379
 6710SOL    HW121571   7.758   2.447   1.633  0.2673  1.2378  0.0017
 6710SOL    HW221572   7.771   2.470   1.484  0.7563  1.7023  0.1096
 6711SOL     OW21573   3.987   5.507   7.066  1.3536 -0.0467 -0.3047
 6711SOL    HW121574   4.000   5.485   6.974  1.6775 -1.5963  0.0827
 6711SOL    HW221575   4.059   5.464   7.111  0.5478 -0.2646  0.8020
 6712SOL     OW21576   0.457   4.022   2.875 -0.1160 -0.3836 -0.0235
 6712SOL    HW121577   0.436   4.114   2.887 -0.9442 -0.2813 -1.9103
 6712SOL    HW221578   0.396   3.976   2.933  1.2634  0.2483  2.0339
 6713SOL     OW21579   6.602   1.312   8.675  0.1146  0.0969  0.2443
 6713SOL    HW121580   6.541   1.377   8.641 -0.2929 -0.6307 -0.4488
 6713SOL    HW221581   6.632   1.348   8.758 -1.7547  0.1689  0.9229
 6714SOL     OW21582   4.476   2.556   6.037 -0.3451 -0.4613 -0.0975
 6714SOL    HW121583   4.393   2.513   6.058  0.0507 -1.0069  0.3610
 6714SOL    HW221584   4.503   2.597   6.119 -0.7017  0.6498 -0.5176
 6715SOL     OW21585   6.724   7.850   9.962 -0.0108 -0.5477 -0.6314
 6715SOL    HW121586   6.685   7.878  10.045 -3.5370 -0.7044 -2.0601
 6715SOL    HW221587   6.734   7.931   9.912  0.6722 -0.6261 -0.6322
 6716SOL     OW21588   5.181   0.438   8.493 -0.0171  0.3014 -0.3776
 6716SOL    HW121589   5.207   0.470   8.580 -0.5383 -0.5733  0.1069
 6716SOL    HW221590   5.111   0.498   8.466 -0.5456 -0.0216  0.2478
 6717SOL     OW21591   6.780   7.880   9.524  0.0308 -0.5673  0.4205
 6717SOL    HW121592   6.756   7.931   9.446 -0.1137  1.5349  1.7642
 6717SOL    HW221593   6.699   7.876   9.576 -0.6392 -4.2169 -0.5967
 6718SOL     OW21594   5.889   3.190   3.604 -0.4673  0.1260 -0.1004
 6718SOL    HW121595   5.928   3.277   3.610  1.3271 -0.6137 -0.4512
 6718SOL    HW221596   5.805   3.204   3.559 -0.3858  1.7064  0.1871
 6719SOL     OW21597   6.975   2.118   4.088  0.1029 -0.1788  0.0924
 6719SOL    HW121598   7.042   2.180   4.117  1.7537 -1.8405 -0.0492
 6719SOL    HW221599   7.009   2.084   4.005 -1.0858 -0.8313 -0.1411
 6720SOL     OW21600   5.053   3.142   9.111 -0.1750 -0.2545  0.1853
 6720SOL    HW121601   5.119   3.074   9.125 -0.8633 -1.0792 -0.4779
 6720SOL    HW221602   5.085   3.190   9.034 -0.4601 -0.7954 -0.2724
 6721SOL     OW21603   3.708   1.195   5.117  0.2057  0.0856  0.0547
 6721SOL    HW121604   3.756   1.177   5.035 -0.2612 -0.2269 -0.1553
 6721SOL    HW221605   3.678   1.109   5.146 -0.9496  0.3696 -0.2674
 6722SOL     OW21606   2.551   5.203   2.402 -0.0390  0.8536  0.1633
 6722SOL    HW121607   2.545   5.151   2.482 -1.1849 -2.3078 -1.7863
 6722SOL    HW221608   2.638   5.185   2.367 -0.4557  0.1531 -0.5456
 6723SOL     OW21609   4.427   7.666   5.779  0.0664 -0.7976 -0.1364
 6723SOL    HW121610   4.369   7.643   5.707  0.4396 -0.1721 -0.6443
 6723SOL    HW221611   4.385   7.741   5.821 -0.1320 -1.1375  0.2850
 6724SOL     OW21612   3.703   2.710   4.181  0.2390  0.2877  0.0743
 6724SOL    HW121613   3.626   2.653   4.179 -0.0805  0.7137 -1.6758
 6724SOL    HW221614   3.670   2.795   4.152  1.0288  0.9640  1.0922
 6725SOL     OW21615   4.289   3.495   4.546  0.3434 -0.7132 -0.0586
 6725SOL    HW121616   4.272   3.449   4.463  1.6333  1.1763 -1.4461
 6725SOL    HW221617   4.374   3.462   4.575  1.4968  1.0202 -1.3027
 6726SOL     OW21618   3.269   1.168   5.635  0.2885  0.3052  0.0097
 6726SOL    HW121619   3.234   1.115   5.563  0.3002  0.4993 -0.1408
 6726SOL    HW221620   3.212   1.148   5.709  2.0068 -2.1227  0.7746
 6727SOL     OW21621   5.555   0.970  10.976  0.1298  0.0507 -0.4353
 6727SOL    HW121622   5.639   0.992  10.938  0.3823 -0.2544 -0.0601
 6727SOL    HW221623   5.576   0.932  11.062 -0.4405  1.0628  0.1749
 6728SOL     OW21624   2.651   3.307   8.470 -0.1811 -0.2618 -0.2713
 6728SOL    HW121625   2.588   3.375   8.494 -1.5601 -1.4708 -0.3752
 6728SOL    HW221626   2.610   3.261   8.397  1.1071 -0.7119 -0.7470
 6729SOL     OW21627   2.608   5.631   0.598  0.1327 -0.0436 -0.1223
 6729SOL    HW121628   2.601   5.539   0.576 -0.3318 -0.6472  2.2378
 6729SOL    HW221629   2.546   5.644   0.670  0.9253  1.8513  0.3066
 6730SOL     OW21630   4.321   2.827   9.188  0.3849  0.2070 -0.4799
 6730SOL    HW121631   4.244   2.781   9.220  0.1186 -1.2359 -2.9530
 6730SOL    HW221632   4.287   2.902   9.139  0.6735  0.8577  0.2898
 6731SOL     OW21633   2.140   5.114   8.060 -0.0143 -0.3426  0.2023
 6731SOL    HW121634   2.076   5.163   8.008  1.8366  1.4102 -0.5631
 6731SOL    HW221635   2.137   5.154   8.146  1.3774  1.1418 -0.3771
 6732SOL     OW21636   7.143   3.199   6.886 -0.2405  0.2657 -0.4364
 6732SOL    HW121637   7.111   3.217   6.797 -0.3140  1.1354 -0.2351
 6732SOL    HW221638   7.193   3.276   6.910  0.1838 -0.1699  0.1047
 6733SOL     OW21639   1.394   4.768   9.315 -0.0240  0.0062 -0.5533
 6733SOL    HW121640   1.441   4.843   9.353 -1.9782  0.1616  1.8251
 6733SOL    HW221641   1.302   4.785   9.335 -0.6510 -2.4639 -1.0128
 6734SOL     OW21642   3.452   2.762   9.304 -0.1044  0.6755  0.3302
 6734SOL    HW121643   3.378   2.823   9.293 -0.3300  0.4263  0.4538
 6734SOL    HW221644   3.503   2.800   9.375  0.5850  1.5271 -0.5902
 6735SOL     OW21645   6.581   2.796   7.066  0.1992 -0.5154  0.0669
 6735SOL    HW121646   6.598   2.889   7.049  0.2670 -0.6753 -0.7415
 6735SOL    HW221647   6.588   2.788   7.161 -0.2738  0.4054  0.1922
 6736SOL     OW21648   2.493   2.416   8.145  0.4678 -0.1639  0.2012
 6736SOL    HW121649   2.576   2.396   8.190  0.1419 -1.9654  0.0971
 6736SOL    HW221650   2.517   2.419   8.053  0.0871 -3.5105 -0.1579
 6737SOL     OW21651   2.895   2.088  11.036 -0.2165  0.6026  0.0948
 6737SOL    HW121652   2.840   2.068  11.111  0.0992  2.2613  0.8072
 6737SOL    HW221653   2.872   2.021  10.971 -0.7995 -0.5950  1.4898
 6738SOL     OW21654   6.366   4.479   0.123  0.0812  0.0997  0.5597
 6738SOL    HW121655   6.301   4.456   0.189 -0.9815 -0.2497 -0.5556
 6738SOL    HW221656   6.342   4.426   0.047  2.2501 -0.7487  0.3882
 6739SOL     OW21657   0.776   0.242   5.938 -0.0356 -0.3784 -0.4339
 6739SOL    HW121658   0.777   0.337   5.926 -0.5256 -0.4496 -1.0296
 6739SOL    HW221659   0.766   0.206   5.850  1.0565 -1.0124 -0.3207
 6740SOL     OW21660   0.233   2.778   3.811 -0.5958 -0.4724 -0.3141
 6740SOL    HW121661   0.266   2.854   3.859 -2.6515 -0.0424  0.5039
 6740SOL    HW221662   0.249   2.799   3.719 -2.1636  1.5166 -0.1868
 6741SOL     OW21663   3.014   7.819  12.135 -0.1066 -0.4546  0.0526
 6741SOL    HW121664   3.051   7.758  12.071  0.5961 -0.2735  0.2817
 6741SOL    HW221665   2.973   7.887  12.082  1.2785  0.1890 -0.2237
 6742SOL     OW21666   1.301   7.365   1.576  0.0984  0.3470  0.2208
 6742SOL    HW121667   1.348   7.444   1.605  0.2419  0.7437 -1.0243
 6742SOL    HW221668   1.315   7.363   1.481 -2.5572  0.5645 -0.2341
 6743SOL     OW21669   4.399   2.868   5.986  0.2308 -0.3897  0.7752
 6743SOL    HW121670   4.306   2.847   5.983  0.0918 -0.3098  2.9445
 6743SOL    HW221671   4.414   2.898   6.076  1.9947  1.3118 -0.0119
 6744SOL     OW21672   4.213   1.192  10.055 -0.5967  0.0521 -0.0266
 6744SOL    HW121673   4.151   1.210  10.125  0.1242 -0.8999  0.8847
 6744SOL    HW221674   4.296   1.226  10.087 -0.1486 -0.8596 -0.1812
 6745SOL     OW21675   0.166   4.758   9.594 -0.0206 -0.1964 -0.0366
 6745SOL    HW121676   0.244   4.741   9.542  0.5546 -2.6716  1.4202
 6745SOL    HW221677   0.200   4.790   9.678 -0.8592  2.6420 -0.6979
 6746SOL     OW21678   0.104   5.381   7.565  0.2868 -0.1419  0.3406
 6746SOL    HW121679   0.053   5.435   7.624 -2.0556 -0.2607 -1.4279
 6746SOL    HW221680   0.149   5.443   7.508  1.1267 -0.0570  1.0719
 6747SOL     OW21681   5.866   1.522   2.752  0.5192 -0.6968 -0.2662
 6747SOL    HW121682   5.862   1.577   2.675 -0.2921 -1.6636 -0.9324
 6747SOL    HW221683   5.776   1.513   2.781  0.8789  0.3244  1.3131
 6748SOL     OW21684   6.894   5.369   4.866 -0.2936 -0.0585  0.4249
 6748SOL    HW121685   6.973   5.409   4.829 -0.8464  0.8711  0.2085
 6748SOL    HW221686   6.855   5.321   4.793 -1.0663  1.2834 -0.0872
 6749SOL     OW21687   5.102   7.531  12.085  0.1369  0.6141  0.0283
 6749SOL    HW121688   5.117   7.491  11.999  1.0837 -0.5733  0.7250
 6749SOL    HW221689   5.016   7.572  12.077 -0.5271 -0.8858 -0.9716
 6750SOL     OW21690   5.160   3.362   7.323 -0.0542  0.1521  0.0006
 6750SOL    HW121691   5.128   3.403   7.403  1.4458 -1.4032  1.4703
 6750SOL    HW221692   5.218   3.427   7.284  0.3845  0.3826  1.0013
 6751SOL     OW21693   3.914   1.833   8.313  0.5668 -0.0579  0.1444
 6751SOL    HW121694   3.885   1.903   8.254 -1.3854  0.5451  1.7244
 6751SOL    HW221695   3.942   1.879   8.392  1.0570 -0.9845  0.5208
 6752SOL     OW21696   7.619   4.705  11.224 -0.3159 -0.2203  0.6380
 6752SOL    HW121697   7.669   4.743  11.296  1.3093  0.7666 -0.9101
 6752SOL    HW221698   7.601   4.779  11.166 -2.4962 -0.8048  0.4989
 6753SOL     OW21699   7.073   4.636   0.780  0.4805  0.1560  0.3594
 6753SOL    HW121700   7.126   4.583   0.721  0.7099  0.2839  0.4475
 6753SOL    HW221701   6.983   4.605   0.767  0.7370 -0.9614  1.1756
 6754SOL     OW21702   3.088   0.552  10.727  0.0994  0.2732 -0.0710
 6754SOL    HW121703   3.000   0.515  10.730 -0.2691  0.9666 -1.5719
 6754SOL    HW221704   3.144   0.480  10.701 -0.1224 -0.0061  0.2210
 6755SOL     OW21705   5.692   5.416  12.425 -0.2156 -0.6735 -0.8755
 6755SOL    HW121706   5.627   5.406  12.495 -0.1036 -0.0121 -0.6681
 6755SOL    HW221707   5.776   5.412  12.470 -0.1174 -1.4140 -1.1295
 6756SOL     OW21708   0.927   3.020  10.183 -0.6701 -0.0600 -0.1161
 6756SOL    HW121709   0.863   2.974  10.238  0.2740  0.2804  1.3140
 6756SOL    HW221710   1.011   2.980  10.205  0.0246  1.5804  0.3369
 6757SOL     OW21711   0.682   1.274   0.761 -0.4173  0.2312  0.1097
 6757SOL    HW121712   0.777   1.286   0.766 -0.4619  1.1692 -0.8269
 6757SOL    HW221713   0.669   1.179   0.756  0.3708  0.0176  1.6793
 6758SOL     OW21714   3.303   3.424   1.235 -0.1441 -0.4364  0.3507
 6758SOL    HW121715   3.303   3.511   1.195  0.5429 -0.3681  0.4979
 6758SOL    HW221716   3.237   3.375   1.185  1.2086 -0.5822 -1.3679
 6759SOL     OW21717   2.707   3.032   5.169 -0.1880 -0.3544  0.2042
 6759SOL    HW121718   2.612   3.034   5.154 -0.0780 -1.1293 -0.6943
 6759SOL    HW221719   2.716   3.029   5.265 -1.0821 -0.8148  0.2841
 6760SOL     OW21720   4.819   3.135   3.027  0.1012  0.3692  0.1298
 6760SOL    HW121721   4.832   3.229   3.028 -2.7445  0.8540 -0.4228
 6760SOL    HW221722   4.810   3.113   2.934  0.1325 -0.3594  0.2906
 6761SOL     OW21723   4.975   7.279  10.352 -0.2053 -0.4163  0.2596
 6761SOL    HW121724   5.047   7.218  10.337  0.6191  0.6859 -0.4412
 6761SOL    HW221725   4.905   7.249  10.295  0.5535 -0.1394 -0.8393
 6762SOL     OW21726   5.733   4.086  12.248  0.1928 -0.1945 -0.4767
 6762SOL    HW121727   5.667   4.021  12.225  0.1184 -0.4113  0.3209
 6762SOL    HW221728   5.806   4.068  12.189 -0.6003  0.3062 -1.6371
 6763SOL     OW21729   1.571   3.028   1.413  0.4451  0.4275 -0.1522
 6763SOL    HW121730   1.612   2.996   1.332  1.3131  3.3262 -0.9426
 6763SOL    HW221731   1.643   3.044   1.473 -0.2106 -2.0218  1.4662
 6764SOL     OW21732   5.747   6.838   6.550  0.3110 -0.4533  0.2632
 6764SOL    HW121733   5.759   6.922   6.595  2.3997 -0.4147 -0.2962
 6764SOL    HW221734   5.681   6.856   6.483  0.1169  0.5060  0.6951
 6765SOL     OW21735   4.943   6.551   7.947  0.4176 -0.0238  0.2482
 6765SOL    HW121736   4.952   6.617   7.878 -0.3498 -0.3177 -0.1457
 6765SOL    HW221737   5.025   6.502   7.944  1.2267  1.2203  0.8904
 6766SOL     OW21738   4.389   6.243   7.548 -0.3470  0.2339 -0.4918
 6766SOL    HW121739   4.356   6.261   7.459 -1.0057 -0.6804 -0.4493
 6766SOL    HW221740   4.348   6.310   7.602  0.2868  0.9798 -0.9103
 6767SOL     OW21741   4.243   4.040   2.803 -0.4298 -0.1012  0.6551
 6767SOL    HW121742   4.164   3.998   2.837 -0.6970 -1.2306 -1.2186
 6767SOL    HW221743   4.303   3.967   2.787  0.3343  0.5698  0.4301
 6768SOL     OW21744   6.430   0.565  11.951 -0.0789 -0.6021 -0.3582
 6768SOL    HW121745   6.522   0.578  11.930 -0.5268  1.6324 -1.1951
 6768SOL    HW221746   6.383   0.615  11.884 -1.9122 -1.5813  0.1318
 6769SOL     OW21747   7.675   5.304   5.714 -0.2171  0.2039 -0.5391
 6769SOL    HW121748   7.651   5.331   5.803  0.8560  1.8648 -0.7130
 6769SOL    HW221749   7.607   5.341   5.658 -0.4897 -0.2054 -0.4786
 6770SOL     OW21750   5.869   4.910  10.243  0.1261  0.2472 -0.2586
 6770SOL    HW121751   5.778   4.918  10.270  0.3835 -0.4528  0.8946
 6770SOL    HW221752   5.915   4.883  10.323  1.5437  1.7280 -0.5123
 6771SOL     OW21753   5.108   1.254   1.751  0.0900  0.0733 -0.5210
 6771SOL    HW121754   5.110   1.231   1.844 -0.9639  0.5456 -0.3642
 6771SOL    HW221755   5.197   1.236   1.720  0.8833  1.2477  0.9143
 6772SOL     OW21756   3.821   5.492  11.874 -0.0323  0.2149  0.3297
 6772SOL    HW121757   3.862   5.486  11.787 -1.9661  0.2019 -0.6303
 6772SOL    HW221758   3.850   5.577  11.908 -0.0642  0.7005 -0.7980
 6773SOL     OW21759   1.260   7.746  11.219 -0.7697 -0.3066 -0.3907
 6773SOL    HW121760   1.355   7.732  11.216 -0.8931 -1.0927 -1.1549
 6773SOL    HW221761   1.228   7.681  11.281 -0.7620  0.2716  0.2230
 6774SOL     OW21762   7.389   6.073   7.413  0.1080  0.8002 -0.3619
 6774SOL    HW121763   7.304   6.087   7.371  0.9365  0.5955 -2.1894
 6774SOL    HW221764   7.449   6.054   7.341  1.1724 -1.8476  1.0742
 6775SOL     OW21765   5.512   3.975  10.753 -0.6836  0.2467 -0.5177
 6775SOL    HW121766   5.591   3.978  10.808  0.0411 -1.1030 -1.4290
 6775SOL    HW221767   5.440   3.962  10.816  0.0905 -0.9468  0.1628
 6776SOL     OW21768   0.871   2.519   4.143  0.3100  0.0489  0.1041
 6776SOL    HW121769   0.963   2.545   4.135  0.4085 -0.6341 -1.3709
 6776SOL    HW221770   0.824   2.602   4.157  0.8761  0.8013 -2.0026
 6777SOL     OW21771   3.761   0.492   8.230 -0.2916  0.5358 -0.3067
 6777SOL    HW121772   3.699   0.537   8.288 -0.8589  1.2954 -1.4599
 6777SOL    HW221773   3.748   0.534   8.145  0.0341 -1.0064 -1.1521
 6778SOL     OW21774   0.247   5.122   2.099 -0.3531 -0.4292  0.2145
 6778SOL    HW121775   0.296   5.046   2.131 -0.2997 -0.0956  0.9546
 6778SOL    HW221776   0.270   5.192   2.160 -0.3348  0.2069 -0.5036
 6779SOL     OW21777   3.841   5.146  10.545  0.1555  0.0095 -0.1838
 6779SOL    HW121778   3.917   5.111  10.498 -0.5011 -2.4600  0.4673
 6779SOL    HW221779   3.771   5.148  10.480  0.2174  0.2567 -0.2455
 6780SOL     OW21780   2.027   0.494   6.462  0.3373  0.0255  0.4561
 6780SOL    HW121781   2.055   0.582   6.438  0.2507 -0.0901 -0.0779
 6780SOL    HW221782   1.957   0.509   6.526  0.6432  0.3320  0.7288
 6781SOL     OW21783   7.620   0.040   8.657  0.4909  0.1564  0.2420
 6781SOL    HW121784   7.655   0.075   8.575 -0.7238  0.1824 -0.2807
 6781SOL    HW221785   7.563  -0.032   8.630 -0.7619  0.8465  0.9801
 6782SOL     OW21786   0.096   1.013   5.806 -0.0249 -0.3811  0.1033
 6782SOL    HW121787   0.131   1.100   5.785 -2.0139  0.3036 -0.6766
 6782SOL    HW221788   0.169   0.953   5.790  0.8881  0.9760 -1.1248
 6783SOL     OW21789   6.213   6.647   4.360  0.0931  0.2798 -0.2848
 6783SOL    HW121790   6.224   6.601   4.277 -0.5346  0.5060 -0.5017
 6783SOL    HW221791   6.272   6.603   4.420 -0.8866 -1.1863 -0.3410
 6784SOL     OW21792   6.166   5.490  12.200 -0.6044 -0.7858 -0.3268
 6784SOL    HW121793   6.245   5.447  12.165 -0.4769 -0.0687 -0.9555
 6784SOL    HW221794   6.185   5.583  12.192 -1.5927 -0.6052 -0.6537
 6785SOL     OW21795   4.267   4.377   3.144  0.1298  0.0487  0.3766
 6785SOL    HW121796   4.334   4.432   3.186  0.7117 -1.8456  2.0804
 6785SOL    HW221797   4.316   4.322   3.083  0.2660 -1.7385  2.0402
 6786SOL     OW21798   4.351   0.597   0.273 -0.0277  0.3477 -0.3488
 6786SOL    HW121799   4.343   0.623   0.181  0.5039  0.4920 -0.3560
 6786SOL    HW221800   4.322   0.674   0.322  2.4108  1.3582 -0.3500
 6787SOL     OW21801   6.505   5.809   4.283 -0.3710  0.6178 -0.8106
 6787SOL    HW121802   6.435   5.844   4.228 -0.0983  0.5718 -1.1928
 6787SOL    HW221803   6.586   5.840   4.240 -0.1222 -0.4982 -1.1685
 6788SOL     OW21804   6.679   7.503  12.281 -0.6717  0.3570  0.3585
 6788SOL    HW121805   6.631   7.582  12.306 -1.6924  0.0314 -0.5191
 6788SOL    HW221806   6.652   7.486  12.190  0.3012 -0.4327  0.2055
 6789SOL     OW21807   6.885   0.030   3.589  0.3892  0.6345  0.0275
 6789SOL    HW121808   6.873   0.125   3.591  1.0516  0.7012  0.9090
 6789SOL    HW221809   6.923   0.008   3.673  1.2354 -0.2843 -0.5724
 6790SOL     OW21810   6.474   3.497   2.749 -0.0374  0.1119  0.4002
 6790SOL    HW121811   6.486   3.405   2.725 -0.9959  0.2167 -0.5122
 6790SOL    HW221812   6.401   3.497   2.810 -1.0547  0.4069 -0.7725
 6791SOL     OW21813   5.236   3.628   4.262  0.3293 -0.3223 -0.3772
 6791SOL    HW121814   5.280   3.701   4.219  0.9560 -0.0160  0.7408
 6791SOL    HW221815   5.171   3.598   4.199  1.5863 -0.2604 -1.7548
 6792SOL     OW21816   6.664   7.669   2.504 -0.1200  0.0809  0.6125
 6792SOL    HW121817   6.610   7.605   2.550 -1.2596  1.5657  1.4136
 6792SOL    HW221818   6.605   7.709   2.440  1.2485 -1.4181 -1.7479
 6793SOL     OW21819   6.488   3.878  12.203 -0.5796  0.1561  0.6088
 6793SOL    HW121820   6.540   3.812  12.248  1.3309  0.5603 -0.8540
 6793SOL    HW221821   6.440   3.923  12.273  2.1422  0.6984  2.2690
 6794SOL     OW21822   1.448   1.759   5.496 -0.4593  0.1179 -0.8476
 6794SOL    HW121823   1.491   1.819   5.556  0.2936 -0.1250 -1.1366
 6794SOL    HW221824   1.493   1.771   5.413  1.7279 -2.8634 -0.2839
 6795SOL     OW21825   4.612   1.143   8.341 -0.0331 -0.0170 -0.4023
 6795SOL    HW121826   4.678   1.159   8.273 -0.5634 -0.5421 -1.0580
 6795SOL    HW221827   4.653   1.079   8.399  0.4104  0.4062 -0.2461
 6796SOL     OW21828   4.170   6.568   1.354  0.3378  0.0190  0.3331
 6796SOL    HW121829   4.208   6.527   1.432 -1.0336 -0.0041  1.0234
 6796SOL    HW221830   4.244   6.582   1.295  1.0970 -2.0773  0.6885
 6797SOL     OW21831   7.207   3.528  10.946 -0.1417 -0.1202  0.1012
 6797SOL    HW121832   7.201   3.517  10.851  2.6782 -0.9242 -0.0630
 6797SOL    HW221833   7.252   3.450  10.977 -0.2741  0.4963  2.0038
 6798SOL     OW21834   3.195   1.667   1.899 -0.4832  0.9194  0.0887
 6798SOL    HW121835   3.203   1.752   1.942  1.2333  0.6698  0.3329
 6798SOL    HW221836   3.230   1.604   1.963  0.4488  0.3209 -0.9784
 6799SOL     OW21837   0.884   3.475   9.984  0.1049  0.0033 -0.3632
 6799SOL    HW121838   0.895   3.419  10.060 -0.6545 -1.1644 -1.0781
 6799SOL    HW221839   0.828   3.547  10.014  0.4367 -0.0366  0.3603
 6800SOL     OW21840   4.309   5.401   4.640 -0.0217  0.2093 -0.6745
 6800SOL    HW121841   4.237   5.351   4.678  0.8105 -0.5851 -0.0997
 6800SOL    HW221842   4.339   5.347   4.567 -0.7185  1.0775 -1.6387
 6801SOL     OW21843   7.489   4.909   7.350  0.4716  0.1289 -0.3264
 6801SOL    HW121844   7.466   4.999   7.374 -0.9071 -0.2352 -0.1820
 6801SOL    HW221845   7.508   4.867   7.434 -0.4186 -0.1043 -0.2301
 6802SOL     OW21846   1.283   6.078  10.323  0.0921 -0.1433  0.1047
 6802SOL    HW121847   1.211   6.119  10.275  0.4283 -0.0906 -0.3597
 6802SOL    HW221848   1.241   6.031  10.394 -0.6330 -2.1487 -1.5629
 6803SOL     OW21849   2.232   4.054   2.775  0.3535  0.4035 -0.3109
 6803SOL    HW121850   2.228   3.994   2.849  1.7749 -0.3295 -0.8012
 6803SOL    HW221851   2.293   4.122   2.802 -0.0337  0.7772 -0.3661
 6804SOL     OW21852   7.488   1.071   5.394 -0.2020  0.3781 -0.3504
 6804SOL    HW121853   7.433   1.037   5.464 -0.1825  0.5767 -0.2373
 6804SOL    HW221854   7.555   1.123   5.439 -0.5819  1.0567 -0.5557
 6805SOL     OW21855   6.466   0.922  12.285 -0.0531  0.2024  0.5080
 6805SOL    HW121856   6.511   0.983  12.226 -0.6198  0.7705  0.6629
 6805SOL    HW221857   6.419   0.977  12.346 -1.7234 -0.3636 -0.2088
 6806SOL     OW21858   5.779   2.901   9.616 -0.1971  0.0937  0.2579
 6806SOL    HW121859   5.827   2.907   9.698 -1.2116 -2.0709  1.0889
 6806SOL    HW221860   5.843   2.866   9.554  0.3170  0.8655  0.3384
 6807SOL     OW21861   7.046   6.601   5.366 -0.4579  0.7474 -0.3780
 6807SOL    HW121862   7.039   6.686   5.321  2.2557  0.1849 -2.0440
 6807SOL    HW221863   7.115   6.614   5.431 -1.4172  0.3164  0.7797
 6808SOL     OW21864   1.245   2.674   5.029 -0.7384 -0.1635 -0.3102
 6808SOL    HW121865   1.283   2.760   5.046 -2.2847  0.7316 -1.1625
 6808SOL    HW221866   1.296   2.614   5.084  0.0213  1.3607  0.7189
 6809SOL     OW21867   5.043   3.914   8.153 -0.6596 -0.6777 -0.2505
 6809SOL    HW121868   5.085   3.862   8.084  1.7698  2.1003 -1.0811
 6809SOL    HW221869   5.109   3.920   8.222 -0.8164  1.1998 -0.1964
 6810SOL     OW21870   6.504   5.775   8.263  0.5217 -1.0845  0.7257
 6810SOL    HW121871   6.594   5.748   8.280  0.9100 -0.5785 -0.4587
 6810SOL    HW221872   6.476   5.817   8.344  2.3189  1.2693  0.2297
 6811SOL     OW21873   5.555   1.818   0.913 -0.0139  0.7396  0.0761
 6811SOL    HW121874   5.546   1.853   1.001  1.0885 -0.2230  0.5912
 6811SOL    HW221875   5.529   1.726   0.921  2.2963  0.0062 -0.0644
 6812SOL     OW21876   2.612   6.275   5.443 -0.1275 -0.6718 -0.6372
 6812SOL    HW121877   2.680   6.308   5.502 -1.2291  0.0071  0.2886
 6812SOL    HW221878   2.635   6.183   5.429  0.5343 -0.6604  0.3111
 6813SOL     OW21879   3.248   5.144   4.432 -0.1978 -0.0852 -0.1094
 6813SOL    HW121880   3.199   5.065   4.409  0.1040 -1.0728  2.3657
 6813SOL    HW221881   3.181   5.210   4.449 -0.4492  0.3152 -2.2880
 6814SOL     OW21882   6.767   3.992   6.097  0.3062 -0.2833 -0.0911
 6814SOL    HW121883   6.805   4.079   6.084  0.4701  0.2617  3.0698
 6814SOL    HW221884   6.675   4.008   6.116 -0.1464 -1.0269 -1.5501
 6815SOL     OW21885   7.796   4.728   5.625  0.6204 -0.2389  0.2555
 6815SOL    HW121886   7.777   4.791   5.695  0.9665 -0.3147  0.4225
 6815SOL    HW221887   7.892   4.722   5.624  0.7812  1.4341 -1.7081
 6816SOL     OW21888   3.434   7.189   5.936 -0.0984 -0.2604  0.4142
 6816SOL    HW121889   3.484   7.230   5.865  1.0058  0.4987  1.5873
 6816SOL    HW221890   3.436   7.253   6.007 -0.0292 -1.5294  1.5982
 6817SOL     OW21891   0.997   3.671   5.172 -0.3699 -0.1700  0.5774
 6817SOL    HW121892   1.064   3.636   5.113 -0.4387 -0.6980  0.8062
 6817SOL    HW221893   1.031   3.756   5.200 -1.4141  1.2611 -2.1093
 6818SOL     OW21894   6.316   7.886   2.911  0.0127 -0.0734 -0.7812
 6818SOL    HW121895   6.246   7.825   2.892  1.8931 -2.2716 -1.0678
 6818SOL    HW221896   6.380   7.873   2.841  2.8475 -1.6880  1.8265
 6819SOL     OW21897   1.096   2.695   9.705  0.1481 -0.0088  0.9247
 6819SOL    HW121898   1.044   2.714   9.783 -1.3279  0.4569 -0.1185
 6819SOL    HW221899   1.033   2.656   9.643  1.7057 -2.3587  0.6810
 6820SOL     OW21900   1.360   4.730   2.813 -0.5309  0.2313 -0.6274
 6820SOL    HW121901   1.340   4.701   2.724  1.8571 -1.6948 -0.6687
 6820SOL    HW221902   1.456   4.723   2.819 -0.7097 -1.2745  2.5442
 6821SOL     OW21903   3.862   0.816   6.070 -0.5459 -0.2251  0.3443
 6821SOL    HW121904   3.815   0.758   6.011  0.4883 -0.0518 -0.6826
 6821SOL    HW221905   3.803   0.890   6.083 -0.1549  0.5360 -1.8442
 6822SOL     OW21906   6.161   3.176   8.468  0.4677  0.4375  0.2217
 6822SOL    HW121907   6.085   3.189   8.525  0.2487  1.1694 -0.2176
 6822SOL    HW221908   6.125   3.179   8.379  1.1978  2.3559 -0.0576
 6823SOL     OW21909   6.688   7.698   1.963  0.0624 -0.4627 -0.2728
 6823SOL    HW121910   6.699   7.734   1.875 -1.6126 -1.2109 -0.8242
 6823SOL    HW221911   6.683   7.603   1.950 -2.4893 -0.4919  0.2837
 6824SOL     OW21912   5.750   0.345   5.349 -0.5274  0.3890  0.2816
 6824SOL    HW121913   5.797   0.333   5.431 -0.1121 -0.5145 -0.0744
 6824SOL    HW221914   5.696   0.423   5.363 -0.4243  0.2705  1.3853
 6825SOL     OW21915   6.404   1.883   6.156  0.0797  0.6188  1.1592
 6825SOL    HW121916   6.450   1.815   6.204 -1.4892 -1.8090 -0.5671
 6825SOL    HW221917   6.343   1.921   6.220  0.6204  0.0391  2.0286
 6826SOL     OW21918   2.189   3.068  10.085 -0.0097  0.0421 -0.0183
 6826SOL    HW121919   2.268   3.100  10.043 -0.6994 -0.3830 -1.7359
 6826SOL    HW221920   2.206   2.975  10.101 -0.7673 -0.5188 -2.0974
 6827SOL     OW21921   2.720   6.834   7.430  0.1336  0.2148  0.0679
 6827SOL    HW121922   2.660   6.840   7.504  0.5853 -2.0645  0.6965
 6827SOL    HW221923   2.666   6.859   7.354 -1.4371 -1.0306  0.7011
 6828SOL     OW21924   1.975   1.231   5.994  0.1091  0.1987  0.4147
 6828SOL    HW121925   1.928   1.195   6.070 -0.7962  1.3694  0.4311
 6828SOL    HW221926   1.968   1.326   6.004 -0.6382  0.3879 -1.5028
 6829SOL     OW21927   0.781   1.405   7.031  0.4739 -0.0871 -0.0310
 6829SOL    HW121928   0.836   1.454   7.092 -0.0839 -0.5443  0.8595
 6829SOL    HW221929   0.695   1.403   7.073 -0.5521  1.5633 -1.8987
 6830SOL     OW21930   0.837   0.025   2.877 -0.6032 -0.4753 -0.9273
 6830SOL    HW121931   0.760   0.000   2.929 -1.0294 -1.4074 -1.9705
 6830SOL    HW221932   0.906   0.038   2.942 -0.7613 -2.9263 -0.1898
 6831SOL     OW21933   7.091   0.049  12.195  0.2145  0.0151 -0.0894
 6831SOL    HW121934   7.076   0.090  12.110 -0.4187  0.5716  0.2745
 6831SOL    HW221935   7.185   0.032  12.198  0.3110  0.4109 -0.7079
 6832SOL     OW21936   7.309   0.348  12.217 -0.0670 -0.0347 -0.3581
 6832SOL    HW121937   7.239   0.316  12.275 -1.7573  1.1012 -1.6757
 6832SOL    HW221938   7.263   0.391  12.145  2.0147  2.4167 -0.3687
 6833SOL     OW21939   4.551   6.845   5.456 -0.6859 -0.0657 -0.1992
 6833SOL    HW121940   4.540   6.787   5.532  0.9479  1.1027  1.0000
 6833SOL    HW221941   4.524   6.792   5.381  1.2854 -2.6074  0.7568
 6834SOL     OW21942   3.300   5.254  11.601 -0.3740  0.5001  0.3234
 6834SOL    HW121943   3.247   5.251  11.680 -1.1654  0.4889 -0.1950
 6834SOL    HW221944   3.363   5.324  11.617 -2.0726  2.1734  0.0283
 6835SOL     OW21945   0.038   4.783   0.935  0.1720  0.0248 -0.0131
 6835SOL    HW121946  -0.007   4.816   0.857  1.6414 -0.1270 -0.9662
 6835SOL    HW221947   0.010   4.692   0.943  1.6738 -0.6628 -1.7281
 6836SOL     OW21948   4.647   5.655   2.519 -0.1718 -0.5108  0.0609
 6836SOL    HW121949   4.655   5.743   2.482 -1.4030 -0.7503 -0.8227
 6836SOL    HW221950   4.736   5.632   2.545  0.0410  1.3471  1.1517
 6837SOL     OW21951   6.759   3.860   1.737  0.3636 -0.7316  0.2873
 6837SOL    HW121952   6.669   3.834   1.755  0.0268  0.3908  0.3121
 6837SOL    HW221953   6.780   3.922   1.808  0.1521  1.2350 -1.2814
 6838SOL     OW21954   7.872   5.898   6.648 -0.1400  0.0397 -0.8884
 6838SOL    HW121955   7.920   5.900   6.731 -0.0599 -0.1862 -0.9276
 6838SOL    HW221956   7.791   5.851   6.668 -0.2928  0.3149 -0.8507
 6839SOL     OW21957   0.636   7.007   5.276 -0.5405 -0.7954 -0.0610
 6839SOL    HW121958   0.683   7.089   5.265  1.6896 -2.0081 -0.1536
 6839SOL    HW221959   0.573   7.024   5.346  0.1938  0.8248  0.2500
 6840SOL     OW21960   3.528   0.302  10.171 -0.2502  0.2071  0.4520
 6840SOL    HW121961   3.502   0.368  10.106  0.6555 -0.3462 -0.5013
 6840SOL    HW221962   3.468   0.229  10.156 -0.2607  0.2102  0.4785
 6841SOL     OW21963   0.244   3.987   8.253  0.3118 -0.2825 -0.0169
 6841SOL    HW121964   0.256   4.043   8.176 -2.0421 -1.3915 -1.3036
 6841SOL    HW221965   0.175   3.925   8.227  0.9785 -2.1098  2.2457
 6842SOL     OW21966   6.104   0.399   2.861 -0.0927 -0.5795 -0.5864
 6842SOL    HW121967   6.027   0.400   2.804 -0.2846 -1.0173 -0.3409
 6842SOL    HW221968   6.096   0.479   2.913 -0.3947 -0.6240 -0.5576
 6843SOL     OW21969   5.932   2.274   8.543  0.1945 -0.3550 -0.4520
 6843SOL    HW121970   5.971   2.187   8.553  1.1580 -0.0572 -1.4002
 6843SOL    HW221971   5.850   2.270   8.592  1.6103 -0.8730  2.0113
 6844SOL     OW21972   3.621   0.423  12.256  0.2388  0.4960 -0.0252
 6844SOL    HW121973   3.526   0.431  12.261  0.0778 -0.3973 -1.2714
 6844SOL    HW221974   3.643   0.452  12.168  0.9341 -0.7615 -0.2921
 6845SOL     OW21975   5.955   1.743   4.109 -0.3584 -0.0472 -0.2175
 6845SOL    HW121976   5.989   1.829   4.135  0.5399 -0.8505  1.4100
 6845SOL    HW221977   6.030   1.684   4.115 -0.8079 -0.8442 -1.9658
 6846SOL     OW21978   1.028   2.683   8.203  0.3647  0.1437  0.4275
 6846SOL    HW121979   1.037   2.622   8.277  0.1418  0.1863  0.4899
 6846SOL    HW221980   1.117   2.715   8.188  0.3004  0.7045  1.1601
 6847SOL     OW21981   6.507   1.601   7.249  0.5461 -0.1166  0.2249
 6847SOL    HW121982   6.424   1.623   7.207 -0.2486 -1.5364  0.9979
 6847SOL    HW221983   6.534   1.683   7.292 -1.5573 -0.1278  1.7554
 6848SOL     OW21984   4.975   2.391   7.376  0.2531  0.3968 -0.0598
 6848SOL    HW121985   4.918   2.333   7.326 -0.6683 -0.0722  1.4549
 6848SOL    HW221986   5.009   2.337   7.447 -0.2068  1.5349  1.0840
 6849SOL     OW21987   4.763   3.100   9.988 -0.1918  0.1466  0.3115
 6849SOL    HW121988   4.834   3.038   9.972 -1.3557 -1.3859  0.7726
 6849SOL    HW221989   4.777   3.171   9.925  0.7996 -0.9376 -0.7250
 6850SOL     OW21990   5.204   0.281   2.367  0.5589  0.4630 -0.2927
 6850SOL    HW121991   5.177   0.196   2.401  0.0922  1.0082  0.7172
 6850SOL    HW221992   5.144   0.297   2.294  0.5320  0.0137 -0.3745
 6851SOL     OW21993   1.625   4.397   4.443  0.4239 -0.5452 -0.1254
 6851SOL    HW121994   1.707   4.420   4.399  0.2781 -0.1256 -0.1744
 6851SOL    HW221995   1.588   4.327   4.389  1.3370 -1.5945  0.5482
 6852SOL     OW21996   4.240   1.667   4.655  0.3228  0.3072  0.2484
 6852SOL    HW121997   4.211   1.713   4.734  1.3723 -0.0737  0.8752
 6852SOL    HW221998   4.279   1.736   4.600 -1.9821  0.8875 -0.7608
 6853SOL     OW21999   6.860   6.581   7.144  0.4085  0.4477 -0.1492
 6853SOL    HW122000   6.786   6.607   7.198  1.6254  0.3466  1.6692
 6853SOL    HW222001   6.845   6.488   7.125  0.3913  0.2524  0.7791
 6854SOL     OW22002   3.656   1.993   6.769  0.0404  0.4085  0.6843
 6854SOL    HW122003   3.608   1.911   6.780 -1.5056  1.2890  0.9221
 6854SOL    HW222004   3.683   2.017   6.857 -1.3919  1.1936  0.9440
 6855SOL     OW22005   5.911   0.198   0.651  0.2814  0.4427  0.0493
 6855SOL    HW122006   5.968   0.127   0.681  0.3342  0.3203 -0.3342
 6855SOL    HW222007   5.894   0.178   0.559 -0.7604  0.2284  0.2744
 6856SOL     OW22008   0.900   1.943   6.000  0.0370 -0.7014 -0.0574
 6856SOL    HW122009   0.930   1.923   6.089 -0.1889 -2.2701 -0.3079
 6856SOL    HW222010   0.827   2.004   6.012 -0.3259 -1.3006  0.8641
 6857SOL     OW22011   7.185   4.790   7.334  1.2113  0.8691  0.3720
 6857SOL    HW122012   7.162   4.759   7.247 -0.7220 -3.0465  2.0392
 6857SOL    HW222013   7.281   4.781   7.339  1.1298 -1.0447 -0.6812
 6858SOL     OW22014   3.301   1.888   9.573  0.4990 -0.6322 -0.1844
 6858SOL    HW122015   3.316   1.834   9.651  1.4726  0.2205  0.2390
 6858SOL    HW222016   3.349   1.845   9.503  0.6502 -0.7275 -0.0214
 6859SOL     OW22017   7.357   1.383   3.544  0.1020 -0.0047  0.5169
 6859SOL    HW122018   7.451   1.384   3.565 -0.1937 -0.5144  1.9349
 6859SOL    HW222019   7.335   1.474   3.528  1.1521 -0.0258 -1.3761
 6860SOL     OW22020   3.503   7.751   8.844 -0.2282 -0.5193 -0.1084
 6860SOL    HW122021   3.460   7.832   8.872  0.4438  0.0255 -0.6079
 6860SOL    HW222022   3.591   7.779   8.817  0.1235 -1.4655  0.0183
 6861SOL     OW22023   4.098   3.601  10.985 -0.1059 -1.0204 -0.2353
 6861SOL    HW122024   4.193   3.593  10.996  0.0691  0.9257 -0.0127
 6861SOL    HW222025   4.075   3.682  11.030 -1.7213 -0.9332 -1.1343
 6862SOL     OW22026   1.421   6.868   7.182 -0.2649 -0.0780  0.6941
 6862SOL    HW122027   1.398   6.871   7.275  2.2812 -2.7054  1.5367
 6862SOL    HW222028   1.440   6.776   7.165  2.7796  0.8000 -1.4921
 6863SOL     OW22029   2.503   3.894   8.499  0.4463 -0.1399  0.3096
 6863SOL    HW122030   2.446   3.933   8.565  0.9604  1.8923 -0.3755
 6863SOL    HW222031   2.492   3.949   8.421  2.7155 -0.1077 -0.0780
 6864SOL     OW22032   2.983   2.043  12.126 -1.0193 -0.3622  0.3113
 6864SOL    HW122033   2.970   1.948  12.134  0.1014 -0.4294  1.7416
 6864SOL    HW222034   3.076   2.056  12.147 -0.8879  0.9520 -0.9419
 6865SOL     OW22035   0.295   4.210   2.624 -0.3986  0.2035  0.4319
 6865SOL    HW122036   0.330   4.212   2.535 -1.2003 -0.8200  0.0616
 6865SOL    HW222037   0.367   4.237   2.680  0.5354 -0.4845 -0.4145
 6866SOL     OW22038   2.253   3.328   3.890 -0.0296 -0.2632 -0.0530
 6866SOL    HW122039   2.317   3.366   3.951 -1.2592 -0.6084  1.5097
 6866SOL    HW222040   2.302   3.317   3.809  1.0389  2.4762  0.0838
 6867SOL     OW22041   6.934   0.559   9.541  0.1593 -0.5087  0.0779
 6867SOL    HW122042   6.920   0.469   9.571  0.0944 -0.0067  1.6845
 6867SOL    HW222043   6.913   0.557   9.448 -1.9558 -1.7097  0.5017
 6868SOL     OW22044   6.765   4.103   9.852  0.0910 -0.2677  0.2592
 6868SOL    HW122045   6.825   4.176   9.863 -1.0276  0.6663  0.3845
 6868SOL    HW222046   6.765   4.087   9.757  0.7367 -0.4650  0.2881
 6869SOL     OW22047   5.177   1.730   5.571 -0.1019 -0.0317 -0.2074
 6869SOL    HW122048   5.144   1.810   5.528 -1.8071 -0.8181 -0.4183
 6869SOL    HW222049   5.258   1.759   5.614  1.2344  1.0491 -3.0949
 6870SOL     OW22050   2.204   5.265   1.319  0.3159  0.4263 -0.0496
 6870SOL    HW122051   2.133   5.237   1.262 -0.0205  0.4107  0.3692
 6870SOL    HW222052   2.205   5.361   1.312 -1.6716  0.7200  2.1247
 6871SOL     OW22053   6.004   3.435   4.455  0.4612 -0.1895  0.1068
 6871SOL    HW122054   6.073   3.494   4.485  0.3413  0.4206 -0.7808
 6871SOL    HW222055   5.986   3.463   4.365  0.7943 -1.9326 -0.5421
 6872SOL     OW22056   4.337   2.127  11.267 -0.2108  0.3484  0.5134
 6872SOL    HW122057   4.277   2.187  11.223 -0.6699 -0.7292 -0.3701
 6872SOL    HW222058   4.419   2.135  11.218 -0.0371  0.8261  0.8805
 6873SOL     OW22059   3.983   3.887   2.039 -0.4549 -0.2388 -0.4272
 6873SOL    HW122060   4.025   3.936   1.969 -1.3889 -0.6426 -1.2845
 6873SOL    HW222061   3.890   3.901   2.027 -0.6349 -0.0536  0.9380
 6874SOL     OW22062   0.426   5.639   7.199 -0.6440 -0.5366 -0.2112
 6874SOL    HW122063   0.454   5.603   7.115  0.2995 -2.8543  1.0267
 6874SOL    HW222064   0.505   5.676   7.237 -0.9466 -0.0147 -0.0773
 6875SOL     OW22065   1.211   3.311   2.653 -0.6629  0.2805  0.0487
 6875SOL    HW122066   1.205   3.315   2.748  0.7314 -1.2397  0.2472
 6875SOL    HW222067   1.122   3.290   2.624 -0.6867 -1.3860  1.1945
 6876SOL     OW22068   2.040   4.655   3.936  0.3457  0.3115 -0.3471
 6876SOL    HW122069   2.067   4.734   3.983  0.9986 -0.3151  0.3845
 6876SOL    HW222070   2.009   4.686   3.851  1.2154  1.2889 -0.3267
 6877SOL     OW22071   6.278   1.601  11.754 -0.4518 -0.1045 -1.3372
 6877SOL    HW122072   6.351   1.663  11.743 -0.8593  0.3982 -1.2412
 6877SOL    HW222073   6.295   1.559  11.838 -2.2227  2.7108  0.6223
 6878SOL     OW22074   3.277   0.277   2.089 -0.1522 -0.4860  0.1911
 6878SOL    HW122075   3.238   0.344   2.032  1.7200  0.5949  0.1093
 6878SOL    HW222076   3.371   0.295   2.087  0.1531 -1.5707  2.1809
 6879SOL     OW22077   6.071   2.428   9.497  0.2496 -0.1856  0.0835
 6879SOL    HW122078   6.140   2.421   9.431  1.3890 -0.3969  1.2656
 6879SOL    HW222079   6.040   2.338   9.508  1.6751 -0.5408  1.4831
 6880SOL     OW22080   6.133   0.517  10.506 -0.1615  0.3589 -0.6003
 6880SOL    HW122081   6.174   0.574  10.441  0.0176  0.5071 -0.3592
 6880SOL    HW222082   6.083   0.454  10.454  2.0979 -1.1985 -1.0395
 6881SOL     OW22083   6.860   2.942   4.331 -0.4812  0.4516 -0.8512
 6881SOL    HW122084   6.944   2.982   4.307  1.3777 -2.3482  0.4079
 6881SOL    HW222085   6.867   2.851   4.299 -1.6785 -0.7460  1.9683
 6882SOL     OW22086   2.954   0.739   3.515  0.4046  0.4570  0.4443
 6882SOL    HW122087   2.964   0.827   3.550 -0.0740 -0.7266  3.9523
 6882SOL    HW222088   2.859   0.727   3.506  0.4114  0.0047  0.9197
 6883SOL     OW22089   5.044   7.304   0.713  0.0728  0.1735  0.4195
 6883SOL    HW122090   5.083   7.333   0.630 -0.5506  1.0048  0.3997
 6883SOL    HW222091   4.953   7.333   0.707 -0.3762 -1.0974  0.7625
 6884SOL     OW22092   3.965   2.480   1.144 -0.2529  0.0106  0.7311
 6884SOL    HW122093   3.972   2.396   1.190  0.2049  0.3712  1.3333
 6884SOL    HW222094   3.964   2.456   1.052  0.3587 -0.6399  0.8770
 6885SOL     OW22095   6.295   3.346  10.657  0.1136 -0.5750 -0.5535
 6885SOL    HW122096   6.280   3.312  10.745 -2.3521 -0.6361 -0.9468
 6885SOL    HW222097   6.216   3.322  10.608  0.7894  0.7550 -2.3890
 6886SOL     OW22098   0.084   5.047  10.781 -0.3333  0.2589  0.2424
 6886SOL    HW122099  -0.002   5.011  10.803  0.4013 -1.8392 -0.0209
 6886SOL    HW222100   0.127   5.061  10.865 -0.2170 -0.6854  0.3587
 6887SOL     OW22101   0.812   4.431  11.445  0.3434  0.0556 -0.0551
 6887SOL    HW122102   0.797   4.343  11.480  1.0017  0.8625  2.4451
 6887SOL    HW222103   0.839   4.483  11.520  0.7590  2.2427 -1.6066
 6888SOL     OW22104   0.018   2.073   6.481  0.8545  0.5970 -0.3012
 6888SOL    HW122105   0.036   1.979   6.484  1.8531  0.7810 -0.3443
 6888SOL    HW222106   0.005   2.097   6.573  2.6954  0.7960 -0.0583
 6889SOL     OW22107   4.370   0.034   5.860 -0.1796  0.3631 -0.4618
 6889SOL    HW122108   4.379   0.115   5.809  1.7409  0.3274 -0.2376
 6889SOL    HW222109   4.459   0.013   5.888 -0.7682 -1.3520  0.2495
 6890SOL     OW22110   5.800   0.040  12.216 -0.2012 -0.6994  0.3556
 6890SOL    HW122111   5.798   0.107  12.148  1.1135 -0.9312  0.0684
 6890SOL    HW222112   5.771   0.085  12.295  1.1991  0.3703  0.2983
 6891SOL     OW22113   0.032   4.337   6.581  0.4312  0.4320  0.4722
 6891SOL    HW122114  -0.002   4.287   6.506 -0.8397 -1.6331  2.3140
 6891SOL    HW222115   0.107   4.385   6.545  2.2764 -3.3984 -1.3370
 6892SOL     OW22116   2.697   1.535   9.534  0.3765  0.0444 -0.0874
 6892SOL    HW122117   2.627   1.502   9.477 -0.2038 -0.0455  0.6567
 6892SOL    HW222118   2.670   1.509   9.622  1.6073 -0.4232  0.1613
 6893SOL     OW22119   0.630   5.398   4.483 -0.1603 -0.2977  0.0956
 6893SOL    HW122120   0.697   5.463   4.460 -0.4335 -0.7998 -2.3047
 6893SOL    HW222121   0.672   5.314   4.467 -0.2762 -0.7325  1.8701
 6894SOL     OW22122   3.936   1.604  10.446 -0.2123  0.3049  0.4383
 6894SOL    HW122123   3.874   1.575  10.379 -0.3835  0.5580  0.4865
 6894SOL    HW222124   3.900   1.686  10.478  0.8311  1.1549 -0.4635
 6895SOL     OW22125   2.685   1.901   5.055 -0.7035 -0.0604  0.0059
 6895SOL    HW122126   2.707   1.836   5.122  1.9051  0.1983 -0.4852
 6895SOL    HW222127   2.616   1.860   5.003 -1.6893 -0.8981  1.8767
 6896SOL     OW22128   7.765   6.745   9.576 -0.4767 -0.8027  0.2424
 6896SOL    HW122129   7.809   6.823   9.609 -0.0221 -0.6908 -0.5909
 6896SOL    HW222130   7.730   6.702   9.654  1.0630 -0.8598  0.9410
 6897SOL     OW22131   6.361   5.216   6.659 -0.9925  0.4490 -0.2721
 6897SOL    HW122132   6.389   5.125   6.672 -0.5895  0.4500 -1.0924
 6897SOL    HW222133   6.368   5.255   6.746 -0.5681 -0.1400 -0.0329
 6898SOL     OW22134   6.454   0.703   2.063  0.5015  0.7974 -0.3402
 6898SOL    HW122135   6.368   0.685   2.101  0.3792 -1.1558 -1.4104
 6898SOL    HW222136   6.486   0.618   2.034  2.2591  1.6631 -1.1209
 6899SOL     OW22137   4.363   6.783   1.765  0.6011 -0.2232  0.4106
 6899SOL    HW122138   4.443   6.830   1.741  0.3438 -0.4652 -1.0175
 6899SOL    HW222139   4.304   6.850   1.799  0.7785  0.2462 -0.2050
 6900SOL     OW22140   2.507   4.624   1.257 -0.1716  0.6533  0.5418
 6900SOL    HW122141   2.491   4.576   1.176  0.1676  0.0169  0.8444
 6900SOL    HW222142   2.602   4.620   1.269 -0.2987 -0.1233  1.4708
 6901SOL     OW22143   6.239   3.034   5.774 -0.3850 -0.4707  0.3499
 6901SOL    HW122144   6.328   3.037   5.809 -0.1573  0.0478 -0.2406
 6901SOL    HW222145   6.205   2.949   5.801 -0.1720 -0.1609  1.6855
 6902SOL     OW22146   2.531   3.187   2.372  0.3659  0.2914 -0.1743
 6902SOL    HW122147   2.598   3.247   2.340 -0.4513  1.1695 -0.2783
 6902SOL    HW222148   2.476   3.170   2.295  0.0277  0.1831  0.0900
 6903SOL     OW22149   7.064   6.400   7.541  0.0164 -0.0728 -0.1296
 6903SOL    HW122150   7.139   6.390   7.601  0.3250 -0.9438 -0.6426
 6903SOL    HW222151   7.079   6.484   7.498  0.2325  0.1726  0.4170
 6904SOL     OW22152   5.038   4.208   1.447 -0.4667  0.4933  0.6341
 6904SOL    HW122153   5.043   4.303   1.436 -0.5267  0.6688  1.9645
 6904SOL    HW222154   4.986   4.178   1.373 -0.0777  1.4379 -0.0478
 6905SOL     OW22155   3.991   1.381  11.098 -0.5363 -0.1790 -0.1276
 6905SOL    HW122156   4.005   1.385  11.193 -0.8920  0.5298 -0.0980
 6905SOL    HW222157   3.929   1.310  11.085 -0.8770  0.0555  0.2184
 6906SOL     OW22158   7.730   4.248  11.598 -0.2257 -0.3712  0.2871
 6906SOL    HW122159   7.637   4.260  11.614 -0.0965 -0.4109  1.1002
 6906SOL    HW222160   7.745   4.154  11.607  0.1348 -0.2145  1.6095
 6907SOL     OW22161   6.524   7.713  10.934 -0.2338  0.1528  0.3306
 6907SOL    HW122162   6.463   7.733  10.863  1.0569  0.3866 -0.7755
 6907SOL    HW222163   6.469   7.696  11.010 -1.6566  0.3036 -0.6273
 6908SOL     OW22164   2.509   0.430  11.436 -0.1687 -0.2325  0.3115
 6908SOL    HW122165   2.514   0.338  11.463 -1.5391 -0.3069  0.3993
 6908SOL    HW222166   2.432   0.464  11.482 -0.2949  0.6736 -0.5486
 6909SOL     OW22167   5.390   4.012   0.621  0.1142  0.2486  0.1849
 6909SOL    HW122168   5.441   4.075   0.570  1.9489 -0.8429  0.5865
 6909SOL    HW222169   5.299   4.025   0.592  0.7626  1.4335 -1.4333
 6910SOL     OW22170   7.909   1.319   1.643  0.0800 -0.2668  0.0022
 6910SOL    HW122171   7.844   1.252   1.659  0.2241 -0.4429 -0.1471
 6910SOL    HW222172   7.963   1.285   1.572  0.0739  0.0604 -0.1643
 6911SOL     OW22173   3.642   1.642   1.560  0.5726 -0.0079  0.5308
 6911SOL    HW122174   3.721   1.606   1.520  0.0351 -0.1148 -0.4876
 6911SOL    HW222175   3.576   1.573   1.547  0.0596  0.4908  0.4329
 6912SOL     OW22176   6.402   7.046   4.787 -0.0743  0.1528  0.7415
 6912SOL    HW122177   6.494   7.061   4.763  0.1648  2.1227  2.5654
 6912SOL    HW222178   6.364   7.003   4.710  2.3831 -0.8421 -0.0177
 6913SOL     OW22179   5.268   3.577   0.552 -0.5817 -0.0261  0.4828
 6913SOL    HW122180   5.295   3.622   0.632 -0.8272 -0.9664  1.1145
 6913SOL    HW222181   5.347   3.530   0.524 -0.4950  0.3049  0.1581
 6914SOL     OW22182   4.069   7.016   4.193  0.5659  0.1281 -0.1663
 6914SOL    HW122183   4.097   7.100   4.229  0.8033  0.7048 -1.6384
 6914SOL    HW222184   4.103   6.951   4.255 -1.1884  1.1423  2.0091
 6915SOL     OW22185   0.495   7.123  11.499  0.2738 -0.2422  0.0853
 6915SOL    HW122186   0.515   7.167  11.416  0.4313  0.6049  0.5653
 6915SOL    HW222187   0.400   7.108  11.496  0.3784 -0.7912 -0.5248
 6916SOL     OW22188   3.969   7.441   7.084  0.2057 -0.1140  0.5175
 6916SOL    HW122189   3.895   7.436   7.144  0.4724 -0.9663  0.7774
 6916SOL    HW222190   3.929   7.439   6.997 -0.0679 -0.6781  0.6560
 6917SOL     OW22191   2.162   3.832  10.495 -0.1379  0.2576  0.0396
 6917SOL    HW122192   2.253   3.806  10.511 -0.1011  0.9463  1.1096
 6917SOL    HW222193   2.140   3.886  10.571 -1.3111  0.4410 -0.4174
 6918SOL     OW22194   1.517   5.577   6.059  0.1778  0.3792  0.5390
 6918SOL    HW122195   1.527   5.521   6.136  0.0408 -0.8173 -0.2752
 6918SOL    HW222196   1.604   5.612   6.043  0.1226  0.9637  1.4623
 6919SOL     OW22197   0.313   2.981   4.154  0.1419  0.0270 -0.1015
 6919SOL    HW122198   0.271   3.066   4.167  3.2169  1.8722 -1.2327
 6919SOL    HW222199   0.341   2.982   4.062  1.7050 -1.4778  0.3087
 6920SOL     OW22200   3.191   6.056   6.817  0.2482 -0.1689 -0.5026
 6920SOL    HW122201   3.228   6.005   6.889 -0.4740 -0.0130 -0.0069
 6920SOL    HW222202   3.097   6.039   6.821  0.2473 -0.6036 -1.7712
 6921SOL     OW22203   5.719   3.684   7.460 -0.0041 -0.0174  0.3199
 6921SOL    HW122204   5.681   3.623   7.523 -2.3833  0.6890 -0.3321
 6921SOL    HW222205   5.802   3.711   7.500  1.0716 -3.4431  0.7133
 6922SOL     OW22206   1.473   0.889   8.271  0.0115  0.9880  0.2368
 6922SOL    HW122207   1.510   0.900   8.183 -0.2750  1.0973  0.1302
 6922SOL    HW222208   1.421   0.809   8.266  0.2210  0.8430  0.3822
 6923SOL     OW22209   1.715   4.371   3.248 -0.1510 -0.2084  0.3036
 6923SOL    HW122210   1.755   4.325   3.175 -1.5568  0.3206 -0.8519
 6923SOL    HW222211   1.688   4.302   3.309 -1.1143 -0.8631 -0.8253
 6924SOL     OW22212   4.995   3.374   0.645 -0.8073 -0.0781  0.1134
 6924SOL    HW122213   4.941   3.328   0.580 -1.5372  0.5182  0.2777
 6924SOL    HW222214   5.060   3.421   0.593  1.0416 -2.5693  0.0054
 6925SOL     OW22215   6.264   3.994   1.218 -0.0588  0.3552 -0.1103
 6925SOL    HW122216   6.334   3.980   1.153 -0.5405  0.0468 -0.5737
 6925SOL    HW222217   6.289   4.074   1.264  0.0087  0.9010 -1.0657
 6926SOL     OW22218   1.509   4.976   0.107  0.0044 -0.0519  0.2669
 6926SOL    HW122219   1.575   5.022   0.055  0.9319 -2.6085 -0.9599
 6926SOL    HW222220   1.430   5.030   0.098  0.6479  0.6053 -2.2016
 6927SOL     OW22221   4.689   5.953   8.182 -0.4175 -0.1454 -0.1313
 6927SOL    HW122222   4.652   6.032   8.141  0.1528  0.7432  0.9969
 6927SOL    HW222223   4.778   5.948   8.149 -0.1476  0.2351  0.5265
 6928SOL     OW22224   2.077   0.844   7.496  0.5210  0.1886  0.1992
 6928SOL    HW122225   2.048   0.765   7.541  1.1184 -1.4202 -2.0575
 6928SOL    HW222226   2.169   0.853   7.521  0.0039  1.2811  1.8757
 6929SOL     OW22227   3.681   1.814   8.694  0.2207  0.5589  0.0413
 6929SOL    HW122228   3.657   1.744   8.755 -0.4185  1.9489  1.4552
 6929SOL    HW222229   3.754   1.778   8.644 -0.6697 -1.4378  0.0941
 6930SOL     OW22230   6.940   2.176  10.493  0.0148 -0.1981 -0.3959
 6930SOL    HW122231   6.937   2.146  10.402  2.9858  0.0040 -0.6594
 6930SOL    HW222232   6.955   2.096  10.543 -5.0913 -0.9454  0.5504
 6931SOL     OW22233   7.515   6.451   9.201 -0.1198  0.3516 -0.1687
 6931SOL    HW122234   7.497   6.451   9.107 -0.3878 -0.7439 -0.1304
 6931SOL    HW222235   7.433   6.482   9.241 -1.0642 -1.9996 -0.1509
 6932SOL     OW22236   1.677   0.859   9.178 -0.0214  0.1913 -0.5663
 6932SOL    HW122237   1.616   0.798   9.220 -1.0208  0.0446 -2.1359
 6932SOL    HW222238   1.764   0.825   9.199 -0.4397  0.3317  1.6173
 6933SOL     OW22239   0.891   6.373  11.977 -0.4541 -0.3899  0.5874
 6933SOL    HW122240   0.936   6.352  11.895 -0.1146 -1.0201  0.9242
 6933SOL    HW222241   0.806   6.409  11.950  0.0004  0.2209 -0.0426
 6934SOL     OW22242   2.275   7.001   6.729  0.3151  0.9825  0.4299
 6934SOL    HW122243   2.316   7.012   6.815  0.2843 -0.9739  0.7422
 6934SOL    HW222244   2.238   6.913   6.732 -0.1150  1.0691 -1.4300
 6935SOL     OW22245   2.800   2.888  11.424  0.0654 -0.1253  0.1304
 6935SOL    HW122246   2.805   2.905  11.518 -0.6965  2.7048 -0.2522
 6935SOL    HW222247   2.890   2.902  11.392 -0.1233  1.2489  0.1476
 6936SOL     OW22248   7.772   1.125  12.232  0.4208  0.0057 -0.4738
 6936SOL    HW122249   7.757   1.175  12.313  1.1098 -0.6372  0.0584
 6936SOL    HW222250   7.859   1.088  12.242  0.0972 -0.9543 -1.0535
 6937SOL     OW22251   0.295   7.557   4.502 -0.0764  0.4781 -0.4189
 6937SOL    HW122252   0.314   7.651   4.502  2.2480  0.0583 -1.2948
 6937SOL    HW222253   0.352   7.521   4.570 -2.7537 -0.0599  1.7168
 6938SOL     OW22254   3.796   7.420   6.313 -0.2700  0.1796  0.2706
 6938SOL    HW122255   3.796   7.423   6.408 -0.4226  1.2373  0.2462
 6938SOL    HW222256   3.883   7.387   6.290  0.0592  0.6984  0.7603
 6939SOL     OW22257   1.234   0.950   1.391  0.0862 -0.0288  0.1628
 6939SOL    HW122258   1.253   0.856   1.387  0.5886  0.1215 -2.1089
 6939SOL    HW222259   1.318   0.991   1.411  0.2086  0.0324 -0.4664
 6940SOL     OW22260   6.541   6.596   6.533 -0.2620  0.0038  0.1771
 6940SOL    HW122261   6.599   6.601   6.610 -0.2415 -0.2894  0.1820
 6940SOL    HW222262   6.461   6.641   6.561  0.4703  1.6575 -0.3030
 6941SOL     OW22263   4.053   2.272   3.773  0.0383 -0.0752 -0.1336
 6941SOL    HW122264   4.100   2.341   3.819  0.6883 -0.9006  0.4647
 6941SOL    HW222265   4.096   2.265   3.688  1.6064 -1.3996  0.7169
 6942SOL     OW22266   2.509   4.369  10.186 -0.0364 -0.1654  0.6963
 6942SOL    HW122267   2.594   4.325  10.175 -0.2684 -0.9360  1.7323
 6942SOL    HW222268   2.520   4.453  10.142  0.2836 -1.3888 -1.7490
 6943SOL     OW22269   1.678   4.929   7.860 -0.0704 -0.6466 -0.6624
 6943SOL    HW122270   1.685   4.840   7.894 -0.5078 -0.8845 -1.1677
 6943SOL    HW222271   1.613   4.972   7.916  1.3506 -0.1047  0.6419
 6944SOL     OW22272   1.950   1.652   6.272 -0.1192  0.5280 -0.1518
 6944SOL    HW122273   1.876   1.590   6.276  0.3216 -0.0136 -0.1941
 6944SOL    HW222274   2.009   1.622   6.341  0.0007  1.0432 -0.0298
 6945SOL     OW22275   3.603   0.380  11.499 -0.4653 -0.0748  0.2851
 6945SOL    HW122276   3.693   0.387  11.529 -0.6290  1.9902  0.4346
 6945SOL    HW222277   3.564   0.313  11.555  0.3217  0.7646  1.8927
 6946SOL     OW22278   6.089   6.982   6.731  0.1314 -0.3079 -0.3706
 6946SOL    HW122279   6.175   6.954   6.761  0.5409  1.6559  0.4517
 6946SOL    HW222280   6.027   6.939   6.791  0.7048  0.2236  0.6313
 6947SOL     OW22281   3.678   2.054   8.410 -0.4279 -0.4897  0.4578
 6947SOL    HW122282   3.711   2.011   8.488  0.1296  0.2489  0.6332
 6947SOL    HW222283   3.586   2.073   8.430 -0.1427  0.2073  1.1675
 6948SOL     OW22284   2.545   0.014   2.950  0.4218 -0.0009  0.5216
 6948SOL    HW122285   2.580  -0.062   2.996  0.4994  0.0131  0.4856
 6948SOL    HW222286   2.523  -0.019   2.863  0.0089 -0.0985  0.6568
 6949SOL     OW22287   7.573   3.754   9.544 -0.0147  0.1684  0.0129
 6949SOL    HW122288   7.516   3.831   9.540  0.9354  0.8797 -0.2870
 6949SOL    HW222289   7.661   3.789   9.531  0.4572 -0.9546  0.0684
 6950SOL     OW22290   7.673   2.285  12.203  0.5543  0.0032 -0.5363
 6950SOL    HW122291   7.725   2.311  12.279  1.3988 -0.3397 -0.9853
 6950SOL    HW222292   7.699   2.194  12.187  0.9823  0.3191 -1.7181
 6951SOL     OW22293   0.599   4.238   7.657  0.2353  0.3105 -0.2285
 6951SOL    HW122294   0.656   4.204   7.726  0.5218  1.2361 -0.0054
 6951SOL    HW222295   0.654   4.236   7.578  0.5352  1.0430 -0.0467
 6952SOL     OW22296   0.519   6.414   8.768 -0.0992  0.5360  0.5094
 6952SOL    HW122297   0.428   6.425   8.742 -0.0323  1.6081  0.6771
 6952SOL    HW222298   0.569   6.441   8.692  0.1233 -2.2600 -0.4460
 6953SOL     OW22299   6.624   6.425   0.984  0.0338 -0.5468 -0.2494
 6953SOL    HW122300   6.680   6.494   1.019  1.5604 -2.5034  1.4980
 6953SOL    HW222301   6.679   6.379   0.921  0.1057 -1.8540  0.7093
 6954SOL     OW22302   7.137   5.991   4.595 -0.7348 -0.1852  0.3497
 6954SOL    HW122303   7.201   6.056   4.625  1.0445 -1.0321 -1.3550
 6954SOL    HW222304   7.067   5.995   4.659  0.5931  1.4719  1.8056
 6955SOL     OW22305   0.781   5.588   6.657 -0.0957 -0.2682 -0.1015
 6955SOL    HW122306   0.803   5.575   6.749  1.4678  1.7782 -0.1160
 6955SOL    HW222307   0.686   5.573   6.653 -0.1421 -0.7453  1.7554
 6956SOL     OW22308   0.283   3.852   2.598  0.0092 -0.1428 -0.1949
 6956SOL    HW122309   0.241   3.766   2.591  0.2407 -0.3030  0.3471
 6956SOL    HW222310   0.215   3.914   2.572 -0.6409 -0.3857  0.8720
 6957SOL     OW22311   2.153   0.449   0.120 -0.8259  0.0333  0.6883
 6957SOL    HW122312   2.210   0.407   0.055 -1.3385  1.4820 -0.7684
 6957SOL    HW222313   2.212   0.469   0.193  0.2768  0.3362 -0.2408
 6958SOL     OW22314   4.043   3.606   0.413  0.1088  0.2193  0.1139
 6958SOL    HW122315   4.055   3.658   0.333 -1.3965  0.6632  0.1449
 6958SOL    HW222316   4.121   3.622   0.465  1.8220 -1.2048 -1.8610
 6959SOL     OW22317   3.089   5.250   3.262  0.2939  0.9530 -0.1640
 6959SOL    HW122318   3.157   5.201   3.215  1.1579  0.6402  1.3290
 6959SOL    HW222319   3.011   5.197   3.255  0.6185  0.5241 -0.5630
 6960SOL     OW22320   1.866   5.024  10.284 -0.0108 -0.7539 -0.5250
 6960SOL    HW122321   1.816   4.942  10.284  1.1507 -1.5019 -0.7585
 6960SOL    HW222322   1.861   5.055  10.194 -1.9426  0.4233 -0.0617
 6961SOL     OW22323   6.574   2.510   3.144  0.0845 -0.3983 -0.3053
 6961SOL    HW122324   6.548   2.594   3.183  0.7599 -0.1984 -0.2856
 6961SOL    HW222325   6.496   2.481   3.096 -0.5044 -0.2858  0.5677
 6962SOL     OW22326   6.775   3.856  11.350 -0.1285  0.3858 -0.0619
 6962SOL    HW122327   6.717   3.899  11.412  1.1142 -0.1391  1.5146
 6962SOL    HW222328   6.794   3.924  11.284 -0.5106  1.3284  0.7796
 6963SOL     OW22329   7.379   4.143   8.973  0.2336  0.7604  0.5235
 6963SOL    HW122330   7.310   4.191   8.927  1.8897  2.7762 -0.0335
 6963SOL    HW222331   7.334   4.096   9.043 -1.7538  1.4674 -0.2251
 6964SOL     OW22332   7.452   2.482   5.854 -0.4592 -0.1226  0.4942
 6964SOL    HW122333   7.536   2.502   5.812 -1.6401  2.1887 -0.9453
 6964SOL    HW222334   7.437   2.556   5.913 -1.0184 -1.0704  1.5848
 6965SOL     OW22335   0.779   1.746  12.411 -0.1015  0.4443  0.5893
 6965SOL    HW122336   0.807   1.686  12.480 -1.2173  1.4646  1.9807
 6965SOL    HW222337   0.689   1.769  12.434 -0.8684  0.0751 -1.7595
 6966SOL     OW22338   6.624   1.158  11.619  0.4509 -0.0845 -0.1640
 6966SOL    HW122339   6.649   1.241  11.577  0.1647 -0.7543 -1.7069
 6966SOL    HW222340   6.703   1.104  11.615  1.1436  0.6212  2.2940
 6967SOL     OW22341   6.935   5.862   2.715  0.4556 -0.1728 -0.1732
 6967SOL    HW122342   7.030   5.868   2.708  0.3281  0.2860 -2.0684
 6967SOL    HW222343   6.911   5.789   2.659 -0.3044 -0.4156  0.4463
 6968SOL     OW22344   0.773   2.652  10.779  0.2747  0.1563 -0.6100
 6968SOL    HW122345   0.831   2.685  10.848 -0.0029 -1.2701  0.3534
 6968SOL    HW222346   0.707   2.720  10.769  1.1019  1.0050 -0.4626
 6969SOL     OW22347   2.547   6.010   4.519  0.2119 -0.5132 -0.3943
 6969SOL    HW122348   2.614   6.075   4.498  0.1649  0.0759  1.1542
 6969SOL    HW222349   2.525   5.971   4.434 -0.6195  2.2900 -1.6133
 6970SOL     OW22350   5.261   5.264   7.872 -0.0252 -0.1414 -0.0971
 6970SOL    HW122351   5.356   5.261   7.880 -0.0220 -0.4391 -0.2478
 6970SOL    HW222352   5.241   5.211   7.795 -0.4848 -2.1299  1.3059
 6971SOL     OW22353   2.719   0.945   7.377  0.0229 -0.0382  0.2606
 6971SOL    HW122354   2.773   0.982   7.308  1.4969 -0.0242  1.3624
 6971SOL    HW222355   2.697   1.019   7.433 -1.9420  0.1187 -0.6321
 6972SOL     OW22356   2.305   4.227   5.574 -0.0225  0.2391 -0.1287
 6972SOL    HW122357   2.299   4.323   5.571  0.6989  0.2683 -0.6602
 6972SOL    HW222358   2.226   4.201   5.622 -0.0101  1.1208  0.3983
 6973SOL     OW22359   2.571   5.408   6.775  0.6968 -0.0763  0.0782
 6973SOL    HW122360   2.531   5.375   6.855 -0.9564  0.6568 -0.4048
 6973SOL    HW222361   2.520   5.485   6.752  0.4363 -0.8538 -2.2438
 6974SOL     OW22362   0.256   3.033  10.777  0.1018  0.2202 -0.1760
 6974SOL    HW122363   0.320   2.965  10.796  0.3406  0.7667  1.0403
 6974SOL    HW222364   0.286   3.071  10.694  1.0060  0.0543  0.0624
 6975SOL     OW22365   7.698   2.236  10.914  0.2421 -0.3933 -0.7200
 6975SOL    HW122366   7.643   2.292  10.969  0.2622 -1.5310  0.5164
 6975SOL    HW222367   7.786   2.247  10.948 -0.0072 -2.5697  0.8485
 6976SOL     OW22368   1.260   1.829  10.919 -0.1017  0.1503 -0.2730
 6976SOL    HW122369   1.295   1.905  10.966  0.0800  0.4686 -0.8983
 6976SOL    HW222370   1.173   1.816  10.955 -0.9874  1.9747 -1.5691
 6977SOL     OW22371   3.356   2.082   8.758  0.7857 -0.1652  0.1277
 6977SOL    HW122372   3.432   2.104   8.704  1.1895  1.8657  1.4042
 6977SOL    HW222373   3.393   2.033   8.832  0.6854 -0.2816  0.0997
 6978SOL     OW22374   7.693   7.626   4.603  0.0541 -0.2313 -0.3250
 6978SOL    HW122375   7.675   7.536   4.628  1.1515 -1.2459 -2.7864
 6978SOL    HW222376   7.718   7.621   4.510  0.0282  2.6212 -0.6010
 6979SOL     OW22377   5.566   6.397   9.676 -0.8557 -0.2363  0.0807
 6979SOL    HW122378   5.599   6.313   9.706 -1.0495 -0.4169 -0.2097
 6979SOL    HW222379   5.502   6.375   9.609  0.7744  0.1711 -1.7253
 6980SOL     OW22380   4.157   5.289   4.313 -0.4499 -0.0480  0.0135
 6980SOL    HW122381   4.233   5.301   4.258  0.3870 -1.4030  0.8103
 6980SOL    HW222382   4.187   5.232   4.384 -1.9403  0.1932  0.8961
 6981SOL     OW22383   2.226   2.161  10.093  0.4665  0.1979  0.0677
 6981SOL    HW122384   2.151   2.183  10.037  1.0325 -0.1817 -0.8548
 6981SOL    HW222385   2.287   2.115  10.035  1.7133  1.0742  0.6307
 6982SOL     OW22386   5.380   0.026   0.667 -0.7320 -0.8935 -0.5545
 6982SOL    HW122387   5.310   0.062   0.613 -2.0339 -0.9541  1.0092
 6982SOL    HW222388   5.348  -0.061   0.691 -0.7313 -0.4428  1.2066
 6983SOL     OW22389   4.287   0.244   4.722  0.5739  0.0649 -0.3520
 6983SOL    HW122390   4.368   0.216   4.679  0.6902 -0.7700  0.3993
 6983SOL    HW222391   4.283   0.339   4.706 -0.5414 -0.4399 -4.1817
 6984SOL     OW22392   2.080   2.986   7.244  0.0843 -0.6023  0.7206
 6984SOL    HW122393   2.053   2.928   7.315 -0.0033 -0.1758  1.0418
 6984SOL    HW222394   2.002   2.997   7.190  0.3595 -1.5571  0.1081
 6985SOL     OW22395   2.859   2.149   9.307  0.0289  0.4120 -0.0003
 6985SOL    HW122396   2.905   2.223   9.267  2.5924 -0.7479  0.5368
 6985SOL    HW222397   2.837   2.180   9.395  1.3484  0.4880  0.3267
 6986SOL     OW22398   3.850   1.608   1.168  0.3065 -0.1677  0.8542
 6986SOL    HW122399   3.827   1.573   1.082  0.4523  0.4305  0.5664
 6986SOL    HW222400   3.815   1.697   1.168 -0.3621 -0.4092  1.7050
 6987SOL     OW22401   1.793   3.725   8.993 -0.4696 -0.2575  0.1442
 6987SOL    HW122402   1.881   3.705   8.960 -0.5796 -0.2600 -0.1562
 6987SOL    HW222403   1.772   3.810   8.954 -0.8047 -0.4982 -0.2064
 6988SOL     OW22404   2.634   5.674   4.438  0.0577 -0.0772 -0.4239
 6988SOL    HW122405   2.611   5.741   4.374  0.8208  2.2101  1.5353
 6988SOL    HW222406   2.550   5.645   4.473 -0.3609 -1.2574 -2.2833
 6989SOL     OW22407   2.635   0.083   0.919  0.3080  0.5910  0.2154
 6989SOL    HW122408   2.591   0.110   0.839 -1.6705  1.9182  1.6466
 6989SOL    HW222409   2.620   0.155   0.980  0.2113 -1.0834  2.3035
 6990SOL     OW22410   1.737   3.278  11.131  0.1265  0.0383  0.2689
 6990SOL    HW122411   1.785   3.360  11.127  1.1259 -0.4847  1.0733
 6990SOL    HW222412   1.725   3.262  11.224  2.0647 -1.8896  0.2733
 6991SOL     OW22413   1.240   2.717   0.133  0.5070  0.2064 -0.6172
 6991SOL    HW122414   1.250   2.811   0.147 -0.6455  0.1397  0.8948
 6991SOL    HW222415   1.145   2.703   0.132  0.6203 -0.7208 -2.6574
 6992SOL     OW22416   7.434   4.079   9.343  0.0059  0.0134  0.2560
 6992SOL    HW122417   7.362   4.024   9.311  0.4524  0.0424 -0.8188
 6992SOL    HW222418   7.397   4.167   9.345  0.2248  0.1353 -0.9744
 6993SOL     OW22419   6.286   1.950   1.081 -0.6051 -0.1243 -0.9236
 6993SOL    HW122420   6.298   1.863   1.044  1.6967 -0.3182  0.0993
 6993SOL    HW222421   6.219   1.940   1.148 -0.7699 -0.9805 -1.2126
 6994SOL     OW22422   1.027   0.051   4.696 -0.0966  0.2303 -0.4494
 6994SOL    HW122423   0.934   0.053   4.672 -0.0360 -0.6725 -0.8065
 6994SOL    HW222424   1.073   0.066   4.614  0.0796  1.1454 -0.1942
 6995SOL     OW22425   1.830   0.107  10.013 -0.4123 -0.0704 -0.2475
 6995SOL    HW122426   1.750   0.113  10.066  0.3733 -1.5265  1.1759
 6995SOL    HW222427   1.847   0.013  10.006  1.3135  0.2249 -0.3128
 6996SOL     OW22428   3.292   4.593   8.510  0.1040  0.0769 -0.0883
 6996SOL    HW122429   3.321   4.543   8.587  2.8195  0.4642 -0.7677
 6996SOL    HW222430   3.214   4.547   8.480  0.0277 -1.1655  1.8368
 6997SOL     OW22431   2.534   3.573   7.035 -0.0185  0.4945  0.0583
 6997SOL    HW122432   2.552   3.667   7.039  0.8987  0.3393 -0.0409
 6997SOL    HW222433   2.558   3.540   7.121  0.5384  0.2207 -0.1944
 6998SOL     OW22434   6.281   4.769  10.850 -0.1631  0.3689 -0.0853
 6998SOL    HW122435   6.212   4.815  10.896 -0.1581  0.5258 -0.2314
 6998SOL    HW222436   6.237   4.724  10.778 -0.2107 -0.1017  0.2333
 6999SOL     OW22437   7.015   7.838  11.043  0.6409 -0.2260  0.0889
 6999SOL    HW122438   7.006   7.888  10.962  1.3058 -0.2543 -0.0032
 6999SOL    HW222439   7.103   7.801  11.039  1.5276  1.5278  1.8067
 7000SOL     OW22440   2.961   2.138   7.122 -0.1220  0.4174 -0.4073
 7000SOL    HW122441   2.925   2.128   7.210  1.0224 -1.1182 -0.0623
 7000SOL    HW222442   2.885   2.143   7.065 -0.8780  0.8300  0.6142
 7001SOL     OW22443   0.686   0.701   8.630 -0.4597  0.2781  0.3567
 7001SOL    HW122444   0.671   0.708   8.724 -2.0212 -2.1221  0.3744
 7001SOL    HW222445   0.620   0.757   8.590 -0.1134  0.9132  0.6647
 7002SOL     OW22446   7.408   0.564  11.068 -0.1260 -0.5074 -0.5686
 7002SOL    HW122447   7.380   0.499  11.003 -0.2208 -1.0669  0.0229
 7002SOL    HW222448   7.488   0.527  11.106 -0.6237 -0.6753  0.3419
 7003SOL     OW22449   6.343   2.756   2.913  0.8600  0.0606 -0.3860
 7003SOL    HW122450   6.418   2.697   2.899  0.0000 -1.0138 -0.5913
 7003SOL    HW222451   6.315   2.738   3.002  1.0635  0.7343 -0.1814
 7004SOL     OW22452   7.709   6.531   0.036  0.1559 -0.1395 -0.0335
 7004SOL    HW122453   7.671   6.467   0.096 -1.2915  1.2302  0.5857
 7004SOL    HW222454   7.708   6.487  -0.049 -1.2118 -0.8075  0.2917
 7005SOL     OW22455   5.254   4.604  10.560 -0.0713 -0.0301 -0.2801
 7005SOL    HW122456   5.297   4.625  10.642 -0.7408  0.3859 -0.0261
 7005SOL    HW222457   5.209   4.685  10.535 -1.6969 -0.7891  0.0827
 7006SOL     OW22458   4.376   3.403   7.474  0.0616 -0.1382 -0.2151
 7006SOL    HW122459   4.397   3.318   7.436 -0.3853 -0.5002  0.3339
 7006SOL    HW222460   4.295   3.430   7.430 -0.6424 -0.7139  0.7030
 7007SOL     OW22461   0.720   5.013   5.119  0.0538 -0.5513  0.1365
 7007SOL    HW122462   0.783   4.966   5.064  0.7554 -1.8979  1.9835
 7007SOL    HW222463   0.702   5.094   5.071  1.2597 -1.2718 -1.6426
 7008SOL     OW22464   4.302   7.117  10.530  0.1636  0.7222  0.1891
 7008SOL    HW122465   4.221   7.082  10.568  0.3257  2.0915  1.9060
 7008SOL    HW222466   4.273   7.162  10.450 -0.5544  0.0431  0.0438
 7009SOL     OW22467   1.154   1.989   4.933 -0.7212 -0.2883 -0.1050
 7009SOL    HW122468   1.221   1.996   4.864  1.4840  2.3619  2.0715
 7009SOL    HW222469   1.180   1.912   4.983 -1.0069 -0.9045 -0.8812
 7010SOL     OW22470   2.047   2.751  10.459 -0.5040  0.0303 -0.5689
 7010SOL    HW122471   2.113   2.821  10.455 -0.0392 -0.3765 -0.1104
 7010SOL    HW222472   2.056   2.706  10.375  1.3805 -1.4217  0.3397
 7011SOL     OW22473   1.071   2.851  10.706 -0.0492  0.0150  0.0775
 7011SOL    HW122474   1.041   2.810  10.625  0.7056  0.0975 -0.2592
 7011SOL    HW222475   1.007   2.920  10.724 -0.4442 -0.2710 -0.2233
 7012SOL     OW22476   2.900   1.952   1.167 -0.4638 -0.0414  0.3794
 7012SOL    HW122477   2.988   1.964   1.201 -0.0108 -1.2372 -0.2927
 7012SOL    HW222478   2.861   2.040   1.167  1.8479  1.1426 -2.3021
 7013SOL     OW22479   0.214   1.296   2.227  0.4647  0.3742 -0.0638
 7013SOL    HW122480   0.166   1.279   2.146  2.1236  2.4848 -1.6144
 7013SOL    HW222481   0.186   1.384   2.253  2.4097  1.1302 -0.3186
 7014SOL     OW22482   6.159   0.937   3.409  0.3007  0.2155 -0.1127
 7014SOL    HW122483   6.204   0.973   3.486 -0.1501  0.9768 -0.1889
 7014SOL    HW222484   6.195   0.987   3.335  2.2172 -1.8475 -0.7054
 7015SOL     OW22485   3.712   6.416  12.149 -1.0980  0.0800  0.0366
 7015SOL    HW122486   3.729   6.509  12.168 -1.2697  0.0399  0.4027
 7015SOL    HW222487   3.688   6.379  12.234  0.7531 -0.7058  0.2462
 7016SOL     OW22488   0.877   3.492   2.724  0.0143 -0.5899 -0.2042
 7016SOL    HW122489   0.862   3.515   2.632  0.9042 -1.2601 -0.5276
 7016SOL    HW222490   0.893   3.398   2.723  0.4335 -0.5355  0.5856
 7017SOL     OW22491   4.853   4.902   4.041  0.0552 -0.4718  0.0146
 7017SOL    HW122492   4.892   4.822   4.008  0.8192 -1.2344  2.5536
 7017SOL    HW222493   4.853   4.962   3.966  0.5507 -2.4358 -1.6179
 7018SOL     OW22494   2.449   2.882  10.656 -0.2940  0.3433 -0.0652
 7018SOL    HW122495   2.396   2.906  10.580  0.1836  0.8184 -0.2536
 7018SOL    HW222496   2.520   2.946  10.657 -0.2732  0.3161  0.7606
 7019SOL     OW22497   0.930   0.542   2.943  0.4970 -0.4180  0.3282
 7019SOL    HW122498   0.929   0.453   2.908  1.0308 -0.7598  1.1275
 7019SOL    HW222499   0.853   0.547   2.999  0.0912 -0.1419 -0.2446
 7020SOL     OW22500   5.760   7.636   6.895  0.2601 -0.3631 -0.1223
 7020SOL    HW122501   5.681   7.630   6.840  0.8905  0.2863 -1.1334
 7020SOL    HW222502   5.767   7.550   6.936 -0.6750 -0.6061 -0.4328
 7021SOL     OW22503   2.767   1.793   1.714 -0.2296 -0.2527 -0.2729
 7021SOL    HW122504   2.699   1.819   1.775 -0.4997  0.2615 -0.7840
 7021SOL    HW222505   2.836   1.860   1.724  0.6362 -1.2841  0.9227
 7022SOL     OW22506   5.355   5.840   7.219 -0.1012  0.7376  0.0762
 7022SOL    HW122507   5.402   5.816   7.299  0.3963  0.8090 -0.1845
 7022SOL    HW222508   5.388   5.927   7.197  1.2619 -0.0575 -1.2657
 7023SOL     OW22509   0.105   2.009  11.106  0.2881  0.1508 -0.0360
 7023SOL    HW122510   0.191   2.022  11.145  0.6192  2.6001 -1.3652
 7023SOL    HW222511   0.111   1.925  11.061  2.2147  0.5498 -0.6026
 7024SOL     OW22512   3.080   2.647   4.116 -0.0357 -0.2743 -0.4554
 7024SOL    HW122513   3.075   2.592   4.194 -1.5513  1.5166  0.8180
 7024SOL    HW222514   3.172   2.669   4.107  0.1017 -0.0001  1.2583
 7025SOL     OW22515   1.641   4.164   1.410  0.4131 -0.1375  0.0088
 7025SOL    HW122516   1.592   4.158   1.493  1.1188 -0.3547  0.4147
 7025SOL    HW222517   1.700   4.239   1.423  0.7342 -0.3560 -0.1851
 7026SOL     OW22518   2.987   7.889   6.274 -0.2461  0.1195  0.2559
 7026SOL    HW122519   2.918   7.826   6.292  0.4219 -0.6410  0.1953
 7026SOL    HW222520   2.941   7.967   6.244 -1.1244 -0.0536  1.1234
 7027SOL     OW22521   2.952   0.882  10.980  0.1170 -0.3828  0.0754
 7027SOL    HW122522   2.965   0.893  10.886  2.4066  0.4174  0.3977
 7027SOL    HW222523   2.892   0.808  10.989 -0.2351 -0.3951 -1.9973
 7028SOL     OW22524   6.053   3.584   0.554 -0.1940 -0.1398 -0.7885
 7028SOL    HW122525   5.989   3.514   0.540 -0.5753 -0.1654  0.8628
 7028SOL    HW222526   6.013   3.662   0.516 -1.1753 -0.1911  0.0958
 7029SOL     OW22527   4.230   2.241   7.265  0.1730  0.2664 -0.0887
 7029SOL    HW122528   4.159   2.263   7.325  0.1085  0.6397 -0.3009
 7029SOL    HW222529   4.226   2.145   7.258  1.2202  0.0339  1.7834
 7030SOL     OW22530   2.260   3.640   8.706 -0.0473 -0.5030 -0.6732
 7030SOL    HW122531   2.207   3.679   8.637 -0.9979 -0.4537  0.0610
 7030SOL    HW222532   2.214   3.559   8.728 -1.1659  0.6478  1.5720
 7031SOL     OW22533   4.648   1.325   0.572 -0.4609  0.0329  0.1194
 7031SOL    HW122534   4.625   1.418   0.576 -1.2403 -0.1626  0.4701
 7031SOL    HW222535   4.658   1.299   0.664 -1.0542 -0.4134  0.0635
 7032SOL     OW22536   4.708   6.404   5.842  0.2229 -0.5044  0.3942
 7032SOL    HW122537   4.718   6.406   5.747  1.6587 -0.0012  0.5305
 7032SOL    HW222538   4.647   6.475   5.861 -0.1615 -0.6800 -0.1520
 7033SOL     OW22539   5.448   7.093   9.101  0.4965 -0.3594 -0.3182
 7033SOL    HW122540   5.523   7.034   9.093  1.0936 -0.4772  3.7928
 7033SOL    HW222541   5.379   7.039   9.139  0.0692  0.8597  0.7150
 7034SOL     OW22542   7.195   0.790   8.586  0.1538 -0.9394 -0.3493
 7034SOL    HW122543   7.221   0.699   8.595  2.7352 -0.3150 -0.8138
 7034SOL    HW222544   7.222   0.815   8.498 -0.0562  0.4104 -0.0550
 7035SOL     OW22545   1.204   0.229   4.883 -0.0178  0.2487  0.1343
 7035SOL    HW122546   1.280   0.264   4.931  1.8497 -1.3455 -1.5322
 7035SOL    HW222547   1.212   0.134   4.892 -0.7026 -0.0066 -1.7091
 7036SOL     OW22548   5.569   5.814   6.993  0.0769  0.3031 -0.2359
 7036SOL    HW122549   5.542   5.755   7.063 -0.8101  2.8495  1.7274
 7036SOL    HW222550   5.497   5.811   6.930  0.5565 -1.4789 -0.7402
 7037SOL     OW22551   6.321   0.916   9.417  0.3461 -0.1449  0.0415
 7037SOL    HW122552   6.231   0.884   9.423  0.3812 -0.5192 -1.1853
 7037SOL    HW222553   6.374   0.847   9.458  0.4201 -1.7819 -2.5435
 7038SOL     OW22554   2.839   0.450   5.199 -0.0913  0.1171 -0.3789
 7038SOL    HW122555   2.832   0.521   5.136 -1.0813  2.3356  2.0544
 7038SOL    HW222556   2.928   0.417   5.189  0.4932  1.9092 -1.3764
 7039SOL     OW22557   3.963   2.220   9.106 -0.3600 -0.0055  0.6768
 7039SOL    HW122558   3.944   2.266   9.024  3.4039  0.2286 -0.2596
 7039SOL    HW222559   3.931   2.131   9.091 -0.8616  0.3607 -0.5435
 7040SOL     OW22560   3.589   2.330   6.542  0.1315 -0.0086  0.8768
 7040SOL    HW122561   3.637   2.261   6.498  1.2800  0.1633  1.7990
 7040SOL    HW222562   3.629   2.335   6.629  1.8845  3.5407  0.0348
 7041SOL     OW22563   4.475   5.685   5.527 -0.2719  0.2846  0.0685
 7041SOL    HW122564   4.532   5.652   5.457 -0.8053 -0.3335 -0.0825
 7041SOL    HW222565   4.463   5.778   5.507  0.8633  0.4807  0.2307
 7042SOL     OW22566   6.981   7.006  11.710  0.1950  0.0476 -0.3093
 7042SOL    HW122567   6.968   6.924  11.758 -1.5945  0.8643  0.7117
 7042SOL    HW222568   6.912   7.006  11.645 -0.5994  1.2721  0.5016
 7043SOL     OW22569   0.493   0.366   2.003 -0.5652  0.6123  0.0625
 7043SOL    HW122570   0.534   0.296   2.054  0.0035  0.4130 -0.6638
 7043SOL    HW222571   0.557   0.437   2.003  0.3270 -0.1268 -2.0619
 7044SOL     OW22572   3.975   7.414   3.294 -0.3707 -0.3065 -0.4895
 7044SOL    HW122573   3.993   7.344   3.357  0.6277  0.9587  0.6837
 7044SOL    HW222574   3.904   7.465   3.333 -0.3030  0.0243 -0.7868
 7045SOL     OW22575   7.457   2.439   9.987 -0.1053  0.9278 -0.2974
 7045SOL    HW122576   7.518   2.510  10.006 -0.2575  0.9823 -0.0024
 7045SOL    HW222577   7.375   2.482   9.964  0.2847  0.8829 -1.9047
 7046SOL     OW22578   6.481   3.656   6.334  0.6023  0.3736  0.7328
 7046SOL    HW122579   6.419   3.597   6.376 -1.3250  1.8813  0.1495
 7046SOL    HW222580   6.485   3.732   6.391  2.0633  0.2486  0.8277
 7047SOL     OW22581   6.136   5.513  10.130 -0.3734  0.9599 -0.2433
 7047SOL    HW122582   6.147   5.482  10.040 -1.2464  0.5449 -0.2161
 7047SOL    HW222583   6.041   5.520  10.142 -0.4010 -0.9606  1.2872
 7048SOL     OW22584   3.617   4.660   1.804 -0.4743 -0.2108  0.3043
 7048SOL    HW122585   3.532   4.688   1.836 -1.0279 -0.2219 -1.0544
 7048SOL    HW222586   3.677   4.675   1.877 -1.1287  2.4146  0.4280
 7049SOL     OW22587   2.508   5.414   5.627 -0.1918 -0.0132  0.0507
 7049SOL    HW122588   2.549   5.377   5.705  1.5560  1.2223 -0.2202
 7049SOL    HW222589   2.558   5.376   5.554  0.2630  1.2144 -0.3038
 7050SOL     OW22590   7.780   3.818  10.210  0.6916  0.3150  0.7030
 7050SOL    HW122591   7.699   3.869  10.198  0.7015  0.0226 -0.7880
 7050SOL    HW222592   7.749   3.731  10.236  0.4343 -0.1280 -0.9847
 7051SOL     OW22593   3.056   4.845  10.967  0.1291  0.2430  0.2034
 7051SOL    HW122594   3.022   4.761  10.999 -1.9479  0.6067 -0.8720
 7051SOL    HW222595   3.072   4.896  11.046 -0.8537 -0.3471  0.8072
 7052SOL     OW22596   4.782   7.134   0.851  0.3245  0.4550 -0.3615
 7052SOL    HW122597   4.827   7.193   0.791 -0.0939 -0.5388 -1.7315
 7052SOL    HW222598   4.725   7.190   0.903  1.3244  1.4460 -0.3153
 7053SOL     OW22599   7.800   3.607   7.242  0.6416  0.3397  0.2575
 7053SOL    HW122600   7.877   3.567   7.201  0.4526  0.8956 -0.6718
 7053SOL    HW222601   7.837   3.674   7.301  0.9077 -0.3140  0.8468
 7054SOL     OW22602   3.880   3.972   6.564  0.2303  0.6000  0.0997
 7054SOL    HW122603   3.800   3.924   6.583 -0.0836  0.9575 -0.2902
 7054SOL    HW222604   3.943   3.905   6.537 -0.1069  0.3760 -0.1284
 7055SOL     OW22605   6.726   6.864   1.021  0.0964 -0.3264 -0.3348
 7055SOL    HW122606   6.699   6.809   0.947 -0.6147 -0.2676 -0.1241
 7055SOL    HW222607   6.735   6.951   0.984  1.0486 -0.5384 -0.6310
 7056SOL     OW22608   6.792   7.145  10.713 -1.0195  0.2909 -0.4264
 7056SOL    HW122609   6.733   7.074  10.690 -1.3804  0.4276  0.0636
 7056SOL    HW222610   6.810   7.132  10.807  0.8102 -0.5438 -0.8424
 7057SOL     OW22611   6.584   1.095   5.994 -0.3312  0.1065  0.4459
 7057SOL    HW122612   6.599   1.073   5.902 -0.0529  0.0943  0.4936
 7057SOL    HW222613   6.531   1.023   6.027 -0.7297  0.2850  0.2067
 7058SOL     OW22614   4.143   7.387   8.483 -0.1872 -0.0141  0.3098
 7058SOL    HW122615   4.105   7.315   8.533 -1.0148  0.6954  0.7393
 7058SOL    HW222616   4.112   7.374   8.394 -0.3601 -0.1669  0.3926
 7059SOL     OW22617   4.697   4.985   2.238  0.5940  0.2314 -0.2363
 7059SOL    HW122618   4.725   5.077   2.233  0.7221  0.1985 -0.1316
 7059SOL    HW222619   4.653   4.969   2.154 -1.6994  1.1234  0.7189
 7060SOL     OW22620   7.929   0.124   0.801 -0.3214 -0.2074 -0.2434
 7060SOL    HW122621   7.940   0.047   0.744 -0.8334  0.3382 -1.0944
 7060SOL    HW222622   7.943   0.199   0.744 -3.2620  0.4329 -0.2751
 7061SOL     OW22623   3.403   6.397   7.765 -0.2454  0.2841  0.2184
 7061SOL    HW122624   3.474   6.405   7.702  1.0397 -0.9297  1.4358
 7061SOL    HW222625   3.419   6.313   7.808 -3.1314 -0.6490 -0.3015
 7062SOL     OW22626   1.993   7.772   7.339 -0.1432  0.6038 -0.6987
 7062SOL    HW122627   2.061   7.805   7.281 -0.0701 -0.4017 -1.2059
 7062SOL    HW222628   1.911   7.786   7.291 -0.1840  0.7341 -0.5918
 7063SOL     OW22629   6.375   5.931   5.905  0.2069  0.1681  1.2443
 7063SOL    HW122630   6.351   5.884   5.825 -1.2360  1.7275  0.6862
 7063SOL    HW222631   6.469   5.914   5.916  0.0757 -1.4480  0.1745
 7064SOL     OW22632   5.636   2.468   2.559 -0.2373  0.2710 -0.2504
 7064SOL    HW122633   5.643   2.394   2.619 -0.1105 -0.2889 -0.9417
 7064SOL    HW222634   5.723   2.474   2.518  0.5167  2.2340  1.4226
 7065SOL     OW22635   0.841   0.955   9.365 -0.5739  0.0601 -0.0407
 7065SOL    HW122636   0.897   1.029   9.390 -2.3944  1.0529  1.2669
 7065SOL    HW222637   0.757   0.994   9.344 -0.9368 -1.4524 -1.6195
 7066SOL     OW22638   7.828   1.988   9.427 -0.0448 -0.4423  0.1991
 7066SOL    HW122639   7.864   1.911   9.471  0.9041 -0.3463 -0.3578
 7066SOL    HW222640   7.863   1.982   9.338 -1.3109 -0.2426 -0.3269
 7067SOL     OW22641   3.471   4.660  10.875 -0.9984 -0.1885  0.2867
 7067SOL    HW122642   3.539   4.722  10.848 -0.9122  0.3352  1.6415
 7067SOL    HW222643   3.482   4.586  10.816 -0.6908  0.8109 -0.9536
 7068SOL     OW22644   0.511   2.039   7.375 -0.5819 -0.5424 -0.4333
 7068SOL    HW122645   0.506   2.127   7.411 -1.4184 -0.6591 -0.2543
 7068SOL    HW222646   0.530   2.052   7.282  0.6807 -0.2214 -0.1573
 7069SOL     OW22647   2.350   0.304   5.319  0.5890 -0.4975 -0.5871
 7069SOL    HW122648   2.290   0.256   5.262  0.4432  0.9776 -1.7353
 7069SOL    HW222649   2.429   0.315   5.266  0.9380 -0.2228 -0.0192
 7070SOL     OW22650   6.037   4.792   6.167  0.5084  0.0909 -0.7896
 7070SOL    HW122651   6.111   4.735   6.189  0.1782 -0.7681 -1.8377
 7070SOL    HW222652   6.058   4.827   6.081  0.1576  0.6417 -0.6579
 7071SOL     OW22653   0.528   0.312  10.735  0.0861  0.2066  0.2055
 7071SOL    HW122654   0.565   0.234  10.694 -1.4526  0.1876 -1.2719
 7071SOL    HW222655   0.604   0.366  10.759  1.1517 -1.5476  0.9139
 7072SOL     OW22656   3.022   3.648   2.385  0.0183 -0.3131 -0.2610
 7072SOL    HW122657   3.002   3.640   2.478  0.8145  3.4072  0.3626
 7072SOL    HW222658   2.950   3.700   2.349  2.6088  3.6729 -0.2694
 7073SOL     OW22659   4.087   1.339   5.393  0.1188  0.2974 -0.3001
 7073SOL    HW122660   4.027   1.305   5.460  1.1287 -0.8071  0.0792
 7073SOL    HW222661   4.030   1.381   5.329 -1.3549 -2.8319 -1.2294
 7074SOL     OW22662   0.856   7.008   4.473  0.2411  0.5340 -0.5719
 7074SOL    HW122663   0.812   6.968   4.547  2.1155 -1.3280 -0.3575
 7074SOL    HW222664   0.801   7.082   4.448 -0.7523  0.8353  2.2575
 7075SOL     OW22665   4.853   1.998  11.052 -0.2346  0.3402 -0.1765
 7075SOL    HW122666   4.908   2.009  11.130 -0.9976 -1.4331  0.6594
 7075SOL    HW222667   4.914   2.010  10.979  1.2515 -1.1404  0.7192
 7076SOL     OW22668   1.843   7.174  10.348 -0.1777 -0.2135  0.3245
 7076SOL    HW122669   1.918   7.120  10.323  0.6780 -0.4153  3.0416
 7076SOL    HW222670   1.867   7.210  10.433 -1.5373  2.9568 -0.5071
 7077SOL     OW22671   7.310   4.054  11.328  0.2531  0.2419  0.1176
 7077SOL    HW122672   7.388   4.032  11.278  0.0881  0.0483 -0.0577
 7077SOL    HW222673   7.240   4.005  11.286  0.1335 -0.0293  0.6220
 7078SOL     OW22674   4.725   5.444   1.698 -0.1385  0.6250  0.2277
 7078SOL    HW122675   4.652   5.404   1.745 -0.2534 -0.6583 -0.9760
 7078SOL    HW222676   4.753   5.517   1.754 -2.2103  1.0377  0.7889
 7079SOL     OW22677   0.398   5.099   7.365 -0.2489 -0.7216 -0.0559
 7079SOL    HW122678   0.379   5.006   7.358 -0.8460 -0.7527  1.5460
 7079SOL    HW222679   0.486   5.102   7.404  0.0486 -0.6014 -0.7231
 7080SOL     OW22680   7.179   1.753  10.642 -0.2341 -0.4459  0.0968
 7080SOL    HW122681   7.267   1.774  10.611  0.4454 -1.6502  1.1172
 7080SOL    HW222682   7.192   1.683  10.706 -1.9336 -0.6017  0.3216
 7081SOL     OW22683   5.032   6.650   9.250 -0.3350  0.1153  0.1227
 7081SOL    HW122684   4.938   6.645   9.265 -0.6719 -0.8684 -1.9697
 7081SOL    HW222685   5.055   6.565   9.213  1.4666  0.2205  0.8908
 7082SOL     OW22686   1.406   5.239   0.745  0.5927  0.4486 -0.9060
 7082SOL    HW122687   1.357   5.169   0.789  1.3997  0.3571 -0.1159
 7082SOL    HW222688   1.352   5.263   0.670 -1.4169  1.3973  0.7525
 7083SOL     OW22689   4.161   5.331   2.368 -0.3682 -0.4248  0.0464
 7083SOL    HW122690   4.093   5.342   2.301  0.3879 -0.7448 -0.8063
 7083SOL    HW222691   4.206   5.250   2.344 -0.8028 -1.1607  1.6301
 7084SOL     OW22692   2.015   7.695   3.856 -0.1321  0.2279 -0.1975
 7084SOL    HW122693   2.077   7.700   3.783  0.4175 -0.0322  0.2392
 7084SOL    HW222694   2.069   7.714   3.934 -0.3822 -1.0077  0.2986
 7085SOL     OW22695   3.452   4.809  11.945  0.0986 -0.1228 -0.1669
 7085SOL    HW122696   3.538   4.775  11.923 -0.1700  0.4252 -2.2725
 7085SOL    HW222697   3.410   4.739  11.994  0.5420 -1.7706 -2.0289
 7086SOL     OW22698   0.945   2.713   9.937  0.2766  0.4100 -0.7341
 7086SOL    HW122699   0.903   2.628   9.925 -0.0119  0.8614 -3.9882
 7086SOL    HW222700   0.990   2.706  10.021 -1.6681 -2.0729  0.2448
 7087SOL     OW22701   5.219   4.979  11.970 -0.3293 -0.4149  0.1951
 7087SOL    HW122702   5.244   4.921  12.042  0.4792 -1.3488 -0.7884
 7087SOL    HW222703   5.290   5.043  11.965 -1.3353  0.8354  1.4261
 7088SOL     OW22704   6.813   1.441   0.654 -0.4404  0.7707 -0.0777
 7088SOL    HW122705   6.791   1.348   0.655  1.8430  0.1587  1.0141
 7088SOL    HW222706   6.889   1.447   0.596  0.7836  1.5583  1.5366
 7089SOL     OW22707   6.827   7.284   8.506  0.0974  0.2341 -0.3096
 7089SOL    HW122708   6.789   7.200   8.478  2.0020 -0.6669 -0.3828
 7089SOL    HW222709   6.880   7.262   8.583 -2.0534  2.0251  1.8419
 7090SOL     OW22710   5.761   6.582   0.981 -0.0418  0.1753  0.0575
 7090SOL    HW122711   5.849   6.570   1.015 -0.1860 -0.8756  0.0941
 7090SOL    HW222712   5.773   6.598   0.888  0.1697 -0.5530 -0.0479
 7091SOL     OW22713   7.774   7.708   9.691  0.7196 -0.1723  0.6770
 7091SOL    HW122714   7.831   7.760   9.747  0.4489  0.1562  0.6485
 7091SOL    HW222715   7.813   7.715   9.603  0.6253  0.0692  0.6537
 7092SOL     OW22716   2.107   1.949  12.355 -0.4520 -0.1405 -0.0879
 7092SOL    HW122717   2.051   2.003  12.411 -1.1549 -0.1792 -0.7262
 7092SOL    HW222718   2.125   2.005  12.279  1.4811  0.3544  0.6829
 7093SOL     OW22719   0.373   5.139   0.335 -0.1796  0.2079 -0.6588
 7093SOL    HW122720   0.450   5.082   0.344 -0.5694 -0.2398 -0.0613
 7093SOL    HW222721   0.354   5.138   0.241  0.7200  0.5640 -0.8507
 7094SOL     OW22722   2.066   0.647   1.848  0.2239 -0.1872 -0.2749
 7094SOL    HW122723   2.005   0.699   1.900  1.7584  1.3609  0.0605
 7094SOL    HW222724   2.051   0.677   1.758  1.3721  1.2095 -0.0421
 7095SOL     OW22725   5.569   7.359   9.049  0.1729 -0.2133  0.0326
 7095SOL    HW122726   5.518   7.278   9.046  1.2747 -0.9020 -1.1006
 7095SOL    HW222727   5.571   7.382   9.142 -2.9952  0.4058  0.0519
 7096SOL     OW22728   6.648   6.846  10.725  0.6845 -0.3819 -0.3739
 7096SOL    HW122729   6.625   6.759  10.759  1.1600  0.0234  1.0455
 7096SOL    HW222730   6.743   6.845  10.718  0.5950 -0.5531 -2.0705
 7097SOL     OW22731   0.649   1.231   2.578 -0.6242 -0.3171 -0.5666
 7097SOL    HW122732   0.607   1.171   2.518 -0.9795  0.4739 -1.1268
 7097SOL    HW222733   0.733   1.190   2.599 -0.0475 -0.1273 -2.3967
 7098SOL     OW22734   5.514   0.544   5.481 -0.0600  0.6338 -0.1404
 7098SOL    HW122735   5.559   0.488   5.546  1.5008  2.8693  0.8451
 7098SOL    HW222736   5.429   0.502   5.469  0.4937 -1.1889  1.5679
 7099SOL     OW22737   7.289   2.689   7.372  0.6225  0.1819 -0.1663
 7099SOL    HW122738   7.327   2.735   7.447 -0.4753 -1.8731  1.7712
 7099SOL    HW222739   7.195   2.695   7.385  0.4003 -0.1968 -1.4259
 7100SOL     OW22740   3.248   4.553   3.391 -0.3187 -0.4425  0.0446
 7100SOL    HW122741   3.249   4.620   3.459  0.3879  0.5399 -0.8944
 7100SOL    HW222742   3.305   4.484   3.424  0.9197  0.5296 -0.0328
 7101SOL     OW22743   4.623   0.819   8.099  0.0209  0.2217 -0.1835
 7101SOL    HW122744   4.661   0.855   8.019  0.7518  2.3274  1.0240
 7101SOL    HW222745   4.528   0.831   8.088  0.1308  0.6810 -0.6548
 7102SOL     OW22746   3.399   7.085   2.058  0.2608  0.1318  0.0944
 7102SOL    HW122747   3.405   6.998   2.097 -1.2993  0.4991  1.2650
 7102SOL    HW222748   3.322   7.081   2.002 -0.7203  1.1454  1.3146
 7103SOL     OW22749   1.397   7.607   2.213  0.2786 -0.1748 -0.5201
 7103SOL    HW122750   1.482   7.561   2.217  0.3175 -0.1488 -1.0651
 7103SOL    HW222751   1.381   7.633   2.304  0.4964 -0.8325 -0.2851
 7104SOL     OW22752   3.190   5.449   1.209 -0.0986  0.3387  0.0338
 7104SOL    HW122753   3.258   5.424   1.271 -0.8017 -3.0794 -0.3755
 7104SOL    HW222754   3.220   5.415   1.124 -2.2943 -1.5487 -0.1095
 7105SOL     OW22755   1.861   4.164  12.355 -0.2200  0.4310  0.2936
 7105SOL    HW122756   1.805   4.241  12.363 -0.6773  0.0464  0.8170
 7105SOL    HW222757   1.823   4.099  12.414 -0.6085 -0.6635 -1.1133
 7106SOL     OW22758   7.245   4.049   5.671  0.5594  0.1936  0.4086
 7106SOL    HW122759   7.197   4.131   5.658 -1.3582 -0.6418  1.7446
 7106SOL    HW222760   7.335   4.076   5.690  0.3897  1.8747 -0.9579
 7107SOL     OW22761   1.400   2.610  10.349 -0.4109 -0.0901  0.4579
 7107SOL    HW122762   1.408   2.634  10.257 -1.6139  0.1335  0.3924
 7107SOL    HW222763   1.424   2.690  10.397 -2.2749  0.6293  0.2723
 7108SOL     OW22764   1.980   6.514   8.099  0.7387  0.3685 -0.6615
 7108SOL    HW122765   2.008   6.541   8.011  0.6508  0.3613 -0.6921
 7108SOL    HW222766   2.001   6.420   8.102  1.7043  0.5831 -0.2999
 7109SOL     OW22767   5.331   4.022   1.387 -0.0035  0.6312 -0.2462
 7109SOL    HW122768   5.279   4.070   1.452 -2.8826 -1.3583 -0.9071
 7109SOL    HW222769   5.285   4.035   1.304 -0.1157 -2.0409 -0.6917
 7110SOL     OW22770   2.657   7.531   0.954 -0.6603 -0.6917 -0.3559
 7110SOL    HW122771   2.749   7.515   0.973 -0.6190 -0.2451 -0.1425
 7110SOL    HW222772   2.643   7.498   0.866  0.0643  0.5506 -0.9593
 7111SOL     OW22773   2.874   2.212   4.774  0.7619  0.2001  0.2617
 7111SOL    HW122774   2.944   2.157   4.809  0.6727  0.8218  1.4865
 7111SOL    HW222775   2.849   2.171   4.692  2.0090 -0.4869  0.2120
 7112SOL     OW22776   0.013   2.571   2.480  0.0894 -0.2153 -0.7695
 7112SOL    HW122777   0.055   2.656   2.469 -0.5090  0.1338 -0.3752
 7112SOL    HW222778   0.080   2.517   2.523 -0.3548  0.7827  1.3050
 7113SOL     OW22779   6.141   1.368   7.005 -0.1402  0.1972  0.3592
 7113SOL    HW122780   6.066   1.328   7.050  0.6375 -1.8523 -0.0486
 7113SOL    HW222781   6.197   1.294   6.980  2.1783  1.6655  0.8801
 7114SOL     OW22782   6.945   0.555   6.182  0.1472  0.0278  0.0571
 7114SOL    HW122783   7.034   0.532   6.155  0.3671  0.3405  0.4877
 7114SOL    HW222784   6.957   0.606   6.263 -0.5934 -3.0496  2.2769
 7115SOL     OW22785   1.010   7.264   0.334  0.0868  0.0844 -0.5350
 7115SOL    HW122786   0.998   7.191   0.272 -0.1472 -0.7602  0.4757
 7115SOL    HW222787   0.924   7.275   0.374  0.3706  0.2590  0.0305
 7116SOL     OW22788   1.697   7.718   2.322  0.0430 -0.4938  0.0624
 7116SOL    HW122789   1.645   7.736   2.243  2.6553  2.3888 -1.1807
 7116SOL    HW222790   1.752   7.644   2.298 -1.2806 -1.6375  0.3700
 7117SOL     OW22791   4.390   0.772   3.693  0.0568  0.2681  0.0913
 7117SOL    HW122792   4.425   0.712   3.627  2.2259 -0.4004  1.7629
 7117SOL    HW222793   4.302   0.740   3.711 -0.3461  0.0905 -1.9701
 7118SOL     OW22794   5.491   3.216   2.163 -0.2013 -0.4019  0.4959
 7118SOL    HW122795   5.546   3.249   2.234 -2.2433 -0.3557  2.1579
 7118SOL    HW222796   5.504   3.121   2.165 -0.0528 -0.3786  0.7663
 7119SOL     OW22797   3.268   5.846   7.008 -0.2176 -0.1445  0.7030
 7119SOL    HW122798   3.203   5.791   6.963 -0.0633  0.4719 -0.3117
 7119SOL    HW222799   3.228   5.866   7.092 -1.3125  0.1313  0.1397
 7120SOL     OW22800   1.569   3.682   0.916 -0.4166  0.2652 -0.2259
 7120SOL    HW122801   1.545   3.596   0.952 -1.1264  1.0197  1.2224
 7120SOL    HW222802   1.660   3.694   0.945 -1.6766  1.9277  3.8396
 7121SOL     OW22803   7.235   4.228   6.900 -0.0095  0.6854  0.1844
 7121SOL    HW122804   7.151   4.210   6.856 -0.6762  2.7658  0.4593
 7121SOL    HW222805   7.234   4.323   6.913  2.1781  0.6834  0.6879
 7122SOL     OW22806   1.604   7.274   0.225 -0.0719  0.2790 -0.4174
 7122SOL    HW122807   1.679   7.332   0.214  0.1989  0.2735  1.1585
 7122SOL    HW222808   1.564   7.270   0.139  2.0136 -0.1020 -1.4256
 7123SOL     OW22809   5.820   5.980   4.374  0.6230 -0.1389 -0.3542
 7123SOL    HW122810   5.803   6.016   4.287 -1.9420 -0.5830 -0.1246
 7123SOL    HW222811   5.812   6.055   4.433  0.1296 -0.2155 -0.3178
 7124SOL     OW22812   7.368   7.583   1.347  0.4145  0.0929  0.2400
 7124SOL    HW122813   7.359   7.489   1.364  1.2185 -0.3006 -1.3388
 7124SOL    HW222814   7.305   7.624   1.406 -1.3539 -1.5730 -0.3631
 7125SOL     OW22815   5.059   3.260   9.908 -0.0259  0.1452 -0.3437
 7125SOL    HW122816   5.029   3.173   9.885  1.9884 -0.4753 -0.8481
 7125SOL    HW222817   5.085   3.254  10.000 -0.0872  0.2819 -0.3158
 7126SOL     OW22818   1.814   4.673   0.016  0.5401 -0.1192 -0.1734
 7126SOL    HW122819   1.821   4.683   0.111  0.3126 -1.2416 -0.0193
 7126SOL    HW222820   1.766   4.751  -0.013 -2.8030 -1.4878  1.1430
 7127SOL     OW22821   7.421   2.315   0.986  0.1996  0.3900 -0.0329
 7127SOL    HW122822   7.361   2.270   1.046 -0.3502  1.5677  0.3232
 7127SOL    HW222823   7.491   2.347   1.042  0.4885  0.1548 -0.2560
 7128SOL     OW22824   4.871   7.876   9.602 -0.0582 -0.0288  0.2195
 7128SOL    HW122825   4.913   7.843   9.682 -0.4952 -2.1053 -0.3247
 7128SOL    HW222826   4.807   7.940   9.633  0.8019  0.3043  1.3855
 7129SOL     OW22827   4.159   0.791   4.703 -0.3008  0.0913  0.5572
 7129SOL    HW122828   4.203   0.860   4.752 -0.1061  1.3431 -1.2604
 7129SOL    HW222829   4.070   0.824   4.690 -0.4775 -0.4137  0.4651
 7130SOL     OW22830   3.169   0.460   6.351 -0.0018  0.0632  0.9790
 7130SOL    HW122831   3.259   0.435   6.330  0.4263  1.3277  1.2041
 7130SOL    HW222832   3.176   0.550   6.381 -1.5353  0.7861 -0.6165
 7131SOL     OW22833   3.486   7.442   6.397  0.3742  1.4285 -0.3812
 7131SOL    HW122834   3.455   7.363   6.440 -0.4673  0.8275 -2.0155
 7131SOL    HW222835   3.560   7.471   6.450 -0.3958  0.5446  1.2325
 7132SOL     OW22836   0.195   2.420   0.021  0.5925 -0.1355 -0.3647
 7132SOL    HW122837   0.250   2.374  -0.043  0.4263 -0.8553 -0.0030
 7132SOL    HW222838   0.182   2.357   0.091  1.4490  0.9235  0.7817
 7133SOL     OW22839   5.995   0.320   4.371  0.4819 -0.2119  0.3884
 7133SOL    HW122840   6.044   0.339   4.450 -0.5911 -0.6334  1.1769
 7133SOL    HW222841   5.994   0.224   4.366 -0.7393 -0.2287  0.7047
 7134SOL     OW22842   4.994   7.440   8.186  0.0469 -0.2059 -0.3046
 7134SOL    HW122843   5.066   7.408   8.241  0.0497  0.4044  0.0607
 7134SOL    HW222844   5.020   7.529   8.162  0.2428 -0.6144 -1.6628
 7135SOL     OW22845   7.208   2.156   3.461  0.0253  0.5200 -0.1959
 7135SOL    HW122846   7.294   2.171   3.422 -0.0296  0.4829 -0.3313
 7135SOL    HW222847   7.175   2.244   3.481  0.1502  0.5270 -0.0240
 7136SOL     OW22848   3.460   3.323  11.578 -0.2437  0.2387 -0.4351
 7136SOL    HW122849   3.515   3.348  11.504 -3.0798  1.4801 -2.2847
 7136SOL    HW222850   3.465   3.227  11.580  0.7203  0.2452 -1.5360
 7137SOL     OW22851   6.043   7.936  11.581  0.2794  0.1732  0.4120
 7137SOL    HW122852   6.050   8.022  11.539  0.8814  0.0239  0.1845
 7137SOL    HW222853   6.126   7.893  11.560 -0.7881 -1.2352 -1.1841
 7138SOL     OW22854   1.502   5.200   7.352  0.2118  0.0738 -0.0942
 7138SOL    HW122855   1.587   5.188   7.309  1.6127  1.4497  2.0997
 7138SOL    HW222856   1.475   5.288   7.328  0.5590  0.5054  1.0352
 7139SOL     OW22857   1.477   3.687   0.586 -0.5176  0.0123 -0.2579
 7139SOL    HW122858   1.489   3.642   0.670 -0.3262  1.7948  0.7126
 7139SOL    HW222859   1.499   3.621   0.520  1.3721 -0.8259  1.1329
 7140SOL     OW22860   3.353   2.279   7.178  0.5259  0.4798 -0.3274
 7140SOL    HW122861   3.325   2.307   7.266  0.8888 -0.1107 -0.0202
 7140SOL    HW222862   3.348   2.184   7.180  1.2997  0.4214 -0.6842
 7141SOL     OW22863   7.368   0.002  11.325  0.3672 -0.6430 -0.1688
 7141SOL    HW122864   7.301  -0.060  11.355 -0.7358 -0.0121 -1.2014
 7141SOL    HW222865   7.318   0.071  11.280  1.7063 -0.0665 -0.8350
 7142SOL     OW22866   3.310   3.166   1.397 -0.0913 -0.5200  0.1363
 7142SOL    HW122867   3.310   3.247   1.346  0.1908  0.2071  1.2387
 7142SOL    HW222868   3.403   3.143   1.404  0.0191  0.2413  1.5757
 7143SOL     OW22869   5.851   1.968   7.198 -0.4928  0.0558  0.5630
 7143SOL    HW122870   5.832   2.003   7.285  1.1236  3.0088 -0.1541
 7143SOL    HW222871   5.808   2.029   7.137 -1.6124 -1.9581 -0.7970
 7144SOL     OW22872   0.165   5.925   7.577  0.4130 -0.1258  0.0488
 7144SOL    HW122873   0.226   5.987   7.616 -2.8041  2.5503  1.3056
 7144SOL    HW222874   0.098   5.911   7.644 -2.0650 -0.2684 -2.2691
 7145SOL     OW22875   0.968   1.363  10.080  0.0688  0.3089 -0.1236
 7145SOL    HW122876   1.018   1.406  10.150  0.1433  1.5896 -0.9436
 7145SOL    HW222877   1.007   1.397   9.999  0.1575 -1.3502 -0.8093
 7146SOL     OW22878   5.694   6.893   2.968  0.2913  0.3939 -0.3934
 7146SOL    HW122879   5.734   6.830   3.027  0.6124  1.2678  0.3508
 7146SOL    HW222880   5.670   6.842   2.890 -0.2842 -0.8049  0.5440
 7147SOL     OW22881   2.044   1.563   1.433 -0.3721 -0.0635  0.3326
 7147SOL    HW122882   1.969   1.616   1.407 -1.0823 -0.2467  1.9586
 7147SOL    HW222883   2.120   1.620   1.417 -0.9908  0.7926  0.4048
 7148SOL     OW22884   3.838   5.037   0.918 -0.4480 -0.0822  0.6734
 7148SOL    HW122885   3.759   4.982   0.923 -1.7390  1.5851 -0.3513
 7148SOL    HW222886   3.810   5.122   0.952  0.0851  1.3487 -2.1655
 7149SOL     OW22887   1.717   1.226   7.476 -0.1013 -0.1347  0.4872
 7149SOL    HW122888   1.657   1.174   7.421  1.5354 -0.3054 -1.2436
 7149SOL    HW222889   1.763   1.161   7.529  0.9017 -0.3827 -0.6275
 7150SOL     OW22890   4.500   1.644   7.626 -0.0445 -0.5166 -0.0366
 7150SOL    HW122891   4.492   1.648   7.530  1.2041 -0.4193 -0.1635
 7150SOL    HW222892   4.449   1.567   7.652  0.5337 -1.2204 -0.9163
 7151SOL     OW22893   4.872   7.222   9.882  0.2198 -0.2124  0.3680
 7151SOL    HW122894   4.940   7.178   9.832  1.0232  1.0348  0.3300
 7151SOL    HW222895   4.792   7.208   9.830  0.6567 -0.6959 -0.1896
 7152SOL     OW22896   3.045   3.950  11.773 -0.3686  0.1583  0.1922
 7152SOL    HW122897   3.106   4.008  11.818 -0.4083 -1.4865  2.4992
 7152SOL    HW222898   3.099   3.878  11.740 -0.8326 -0.5913  1.0224
 7153SOL     OW22899   5.492   3.150   9.089 -0.2355  0.2492  0.3210
 7153SOL    HW122900   5.530   3.235   9.111  1.2219 -0.1359 -0.5570
 7153SOL    HW222901   5.554   3.087   9.126 -1.0461 -0.4379  0.5265
 7154SOL     OW22902   4.730   7.930   7.833 -0.5011 -0.8114  0.6244
 7154SOL    HW122903   4.656   7.983   7.803  0.3664 -0.7118 -1.5023
 7154SOL    HW222904   4.691   7.847   7.859 -1.2699 -1.4215 -2.1269
 7155SOL     OW22905   2.512   5.427  10.722  0.0273 -0.0583  0.4631
 7155SOL    HW122906   2.492   5.336  10.700  0.4558 -0.5459  1.9683
 7155SOL    HW222907   2.578   5.421  10.791  0.9850  1.4186 -0.2682
 7156SOL     OW22908   2.000   1.637  11.326 -0.6408  0.0450  0.0542
 7156SOL    HW122909   2.074   1.576  11.333 -1.5028 -1.0771 -0.2519
 7156SOL    HW222910   1.929   1.584  11.291 -1.4238  1.2547 -0.2447
 7157SOL     OW22911   7.151   0.845  11.649 -0.2836 -0.0505  0.5797
 7157SOL    HW122912   7.246   0.837  11.641 -0.1405 -0.4405  2.1983
 7157SOL    HW222913   7.130   0.800  11.731 -1.6945  1.1443  0.9299
 7158SOL     OW22914   6.737   5.060   1.361 -0.2177  0.4791  0.6352
 7158SOL    HW122915   6.656   5.019   1.393 -0.1004 -1.6452 -1.5566
 7158SOL    HW222916   6.708   5.118   1.290  0.1568 -0.1851 -0.0651
 7159SOL     OW22917   1.116   0.455   8.950 -0.0537 -0.0213  0.4011
 7159SOL    HW122918   1.026   0.474   8.976 -0.8053 -2.1793 -0.3846
 7159SOL    HW222919   1.138   0.526   8.889 -1.5540  0.0673 -0.0923
 7160SOL     OW22920   0.431   7.312   0.756 -0.0493  0.2253  0.3230
 7160SOL    HW122921   0.382   7.393   0.765  0.0993  0.5044 -1.1268
 7160SOL    HW222922   0.495   7.330   0.686 -0.3934 -1.3052 -0.4339
 7161SOL     OW22923   1.212   4.356   2.888 -0.3467 -1.0853  0.5243
 7161SOL    HW122924   1.147   4.309   2.835 -2.7026  1.1053  1.2153
 7161SOL    HW222925   1.267   4.288   2.925 -2.1751 -3.1094 -0.2313
 7162SOL     OW22926   3.132   0.578  11.918 -0.1360  0.7662 -0.0177
 7162SOL    HW122927   3.225   0.585  11.937  0.1626 -0.7838 -0.7689
 7162SOL    HW222928   3.096   0.528  11.992  0.2908 -1.6171 -1.3009
 7163SOL     OW22929   6.406   7.803   5.811 -0.2067 -0.5678 -0.2000
 7163SOL    HW122930   6.483   7.816   5.756 -1.4789  1.7695 -1.6145
 7163SOL    HW222931   6.339   7.770   5.751 -1.9400  3.0539 -0.5194
 7164SOL     OW22932   0.727   6.650   3.946 -0.3901  0.5098 -0.1574
 7164SOL    HW122933   0.755   6.740   3.963 -0.4437  0.4762  0.1140
 7164SOL    HW222934   0.804   6.606   3.912  0.4926 -0.1184  2.4413
 7165SOL     OW22935   6.388   0.322  12.088  0.1733 -0.2268 -0.0806
 7165SOL    HW122936   6.399   0.385  12.017  1.0868 -0.7793 -0.4630
 7165SOL    HW222937   6.297   0.294  12.082  0.4132 -0.7840 -1.5055
 7166SOL     OW22938   2.279   6.212   7.372  0.2090 -0.7020 -0.4730
 7166SOL    HW122939   2.298   6.292   7.421  1.2360 -0.2951 -1.5026
 7166SOL    HW222940   2.196   6.181   7.409 -0.1621  0.7734  0.0147
 7167SOL     OW22941   4.599   3.590  12.326 -0.0952 -0.1074 -0.0151
 7167SOL    HW122942   4.573   3.537  12.401 -0.2250  0.3593  0.2742
 7167SOL    HW222943   4.587   3.681  12.355 -0.4733  0.0749 -0.7129
 7168SOL     OW22944   1.559   0.184  10.723 -0.0483  0.2125 -0.1500
 7168SOL    HW122945   1.478   0.142  10.753 -0.8691  1.3336 -0.6960
 7168SOL    HW222946   1.610   0.113  10.684 -1.3315 -0.3211 -0.9239
 7169SOL     OW22947   7.193   3.601   1.881 -0.1253  0.2267 -0.0380
 7169SOL    HW122948   7.234   3.679   1.918  1.1215 -0.2270 -0.4073
 7169SOL    HW222949   7.149   3.631   1.802  1.9248  0.2916 -1.2267
 7170SOL     OW22950   5.999   1.501   3.187  0.2556 -0.0612 -0.0604
 7170SOL    HW122951   5.937   1.434   3.159  1.1215  0.0819 -2.5699
 7170SOL    HW222952   6.075   1.489   3.130  0.4543  2.9816 -0.6358
 7171SOL     OW22953   0.044   2.286  10.306  0.1503  0.2083  0.2099
 7171SOL    HW122954   0.137   2.267  10.291 -0.0648 -2.0058  1.2164
 7171SOL    HW222955   0.042   2.379  10.328  2.2588  0.1160  1.0527
 7172SOL     OW22956   0.029   3.526  10.603  0.1180  0.1912  0.2556
 7172SOL    HW122957  -0.033   3.598  10.590 -1.0763 -0.4229  2.1114
 7172SOL    HW222958   0.098   3.542  10.539 -0.1165  2.9591  0.5639
 7173SOL     OW22959   7.217   6.689   8.190 -0.4484  0.5281  0.0228
 7173SOL    HW122960   7.203   6.597   8.169 -1.9808  0.1710  2.3214
 7173SOL    HW222961   7.182   6.736   8.115 -0.4361 -0.7282 -0.8096
 7174SOL     OW22962   6.962   0.186   0.654  0.0303  0.4185  0.1889
 7174SOL    HW122963   6.882   0.155   0.611  0.4582  0.0242 -0.3243
 7174SOL    HW222964   6.950   0.164   0.746  0.2759 -1.2007 -0.1358
 7175SOL     OW22965   5.981   1.854   2.819 -0.0779 -0.2687  0.2756
 7175SOL    HW122966   5.892   1.862   2.853 -0.4923 -0.2834 -0.7517
 7175SOL    HW222967   6.000   1.761   2.824  0.3325 -0.1347  1.5566
 7176SOL     OW22968   6.695   3.026   4.505 -0.6788  0.0178 -0.4926
 7176SOL    HW122969   6.773   2.978   4.475  1.0142  1.9058  0.6084
 7176SOL    HW222970   6.638   2.959   4.542  1.4093 -1.2488  0.6191
 7177SOL     OW22971   1.130   4.987  12.340  0.3731  0.3397 -0.0816
 7177SOL    HW122972   1.035   4.982  12.354 -0.2784  0.4365 -3.5786
 7177SOL    HW222973   1.156   4.898  12.320  1.2175  0.1960  1.4888
 7178SOL     OW22974   1.204   3.680   7.616 -0.4255  0.5368 -0.5749
 7178SOL    HW122975   1.156   3.759   7.638 -1.5193 -0.5158  1.0043
 7178SOL    HW222976   1.291   3.693   7.655 -0.5649  0.9989 -0.4125
 7179SOL     OW22977   6.807   3.935   8.594  0.0506  0.1253  0.0621
 7179SOL    HW122978   6.842   3.851   8.620  0.3748 -0.1168 -1.0889
 7179SOL    HW222979   6.737   3.953   8.656  0.5916 -0.5512  0.8764
 7180SOL     OW22980   6.112   1.788   6.902 -0.3066 -0.4682  0.1369
 7180SOL    HW122981   6.028   1.776   6.857 -0.1437 -0.9782 -0.0432
 7180SOL    HW222982   6.151   1.864   6.860  1.1477 -2.5651 -2.6949
 7181SOL     OW22983   0.431   3.737   3.419  0.3037 -0.5989 -0.4852
 7181SOL    HW122984   0.478   3.655   3.431 -1.0224 -1.1936  1.0268
 7181SOL    HW222985   0.343   3.719   3.452 -0.7423  0.7284 -2.3577
 7182SOL     OW22986   7.773   7.546   0.678  0.0748  0.1516 -0.4036
 7182SOL    HW122987   7.731   7.589   0.603  0.8866  0.3409 -0.7638
 7182SOL    HW222988   7.739   7.592   0.754 -2.5728 -1.5472 -0.4464
 7183SOL     OW22989   3.885   6.273   6.239  0.3079  0.1506  0.5956
 7183SOL    HW122990   3.919   6.221   6.167 -0.0662 -1.6989  1.6817
 7183SOL    HW222991   3.804   6.312   6.204  0.3572 -0.3617 -0.1075
 7184SOL     OW22992   0.813   4.681   2.653 -0.2252 -0.2143  0.2090
 7184SOL    HW122993   0.843   4.649   2.739 -0.9898 -0.4925  0.3854
 7184SOL    HW222994   0.892   4.686   2.600  0.4216  0.9749  1.2434
 7185SOL     OW22995   1.932   6.609   5.642 -0.4874  0.3031  0.0603
 7185SOL    HW122996   2.015   6.648   5.615 -0.3746  0.0461  0.0309
 7185SOL    HW222997   1.869   6.642   5.578 -0.2794 -0.0546 -0.3376
 7186SOL     OW22998   7.675   5.133   3.101 -0.1841 -0.2104 -0.1951
 7186SOL    HW122999   7.585   5.132   3.068  0.1258 -0.2331 -1.0774
 7186SOL    HW223000   7.727   5.093   3.030  0.7583  1.3256 -0.4133
 7187SOL     OW23001   1.300   0.295   4.626  0.2008  0.6371  0.3080
 7187SOL    HW123002   1.266   0.226   4.569  1.9136 -1.0953  1.2476
 7187SOL    HW223003   1.252   0.284   4.708  1.3441 -0.3265  0.8790
 7188SOL     OW23004   7.835   3.803   9.515  0.3913 -0.1105  0.5622
 7188SOL    HW123005   7.862   3.714   9.534 -0.0538 -1.4062 -3.8181
 7188SOL    HW223006   7.917   3.852   9.509  0.8295 -0.8400  0.4704
 7189SOL     OW23007   4.122   2.299   4.733 -0.0110 -0.3226 -0.0213
 7189SOL    HW123008   4.106   2.240   4.659 -0.7530  0.3492 -0.4149
 7189SOL    HW223009   4.090   2.250   4.809 -1.2130 -0.1917 -0.4246
 7190SOL     OW23010   7.861   4.743   3.144 -0.3377 -0.4303 -0.0226
 7190SOL    HW123011   7.782   4.786   3.176  0.9297  2.7422 -0.8520
 7190SOL    HW223012   7.907   4.717   3.224 -0.7682  0.5139  0.5505
 7191SOL     OW23013   3.358   4.357   8.334  0.3105  0.2515  0.0277
 7191SOL    HW123014   3.420   4.393   8.398  0.7374  0.7170 -0.6306
 7191SOL    HW223015   3.409   4.350   8.253 -0.2045 -0.3846 -0.2489
 7192SOL     OW23016   1.656   0.677  12.065  0.1211  0.5390  0.4135
 7192SOL    HW123017   1.580   0.651  12.117 -0.5374 -0.4967 -0.9982
 7192SOL    HW223018   1.654   0.773  12.067 -1.1933  0.5323  0.4484
 7193SOL     OW23019   6.722   4.054  11.739  0.2302  0.1708  0.8603
 7193SOL    HW123020   6.801   4.001  11.750  0.1670 -0.0795  0.1883
 7193SOL    HW223021   6.754   4.143  11.726  0.4338 -0.0238 -0.0060
 7194SOL     OW23022   3.540   0.808   5.575 -0.2364  0.4519 -0.0175
 7194SOL    HW123023   3.566   0.716   5.579  1.4907  0.9055 -0.3635
 7194SOL    HW223024   3.511   0.820   5.484 -0.2942  0.3105 -0.0192
 7195SOL     OW23025   0.601   7.860   7.019  0.2621 -0.0611 -0.5529
 7195SOL    HW123026   0.640   7.889   6.936 -0.1950  0.8499 -0.4546
 7195SOL    HW223027   0.544   7.932   7.046 -0.3116 -0.7379  0.0883
 7196SOL     OW23028   5.749   5.189   3.287 -0.1346  0.2590 -0.0464
 7196SOL    HW123029   5.793   5.122   3.234 -0.6043  1.0596 -1.4656
 7196SOL    HW223030   5.659   5.158   3.295  0.2176 -0.4933  1.3902
 7197SOL     OW23031   3.349   7.396   3.167 -0.1934  0.3107 -0.4348
 7197SOL    HW123032   3.369   7.380   3.259  2.2086  2.1458 -0.5248
 7197SOL    HW223033   3.393   7.326   3.120 -0.0294  0.3034 -0.2710
 7198SOL     OW23034   2.109   3.723   5.553 -0.2899 -0.7940 -0.1743
 7198SOL    HW123035   2.028   3.773   5.565  0.8696  1.4066 -0.9878
 7198SOL    HW223036   2.173   3.768   5.608  0.6604 -1.7832 -0.4466
 7199SOL     OW23037   2.016   2.939  10.699 -0.1784 -0.4152 -0.3547
 7199SOL    HW123038   2.094   2.994  10.707 -1.0903  1.0828 -1.2642
 7199SOL    HW223039   1.944   3.000  10.685 -1.9085 -1.5805  2.3704
 7200SOL     OW23040   7.905   2.418   5.898  0.0788  0.0630 -0.2770
 7200SOL    HW123041   7.817   2.429   5.862 -0.6412 -0.0798  1.3433
 7200SOL    HW223042   7.960   2.475   5.845 -1.1482  0.8405 -0.7604
 7201SOL     OW23043   0.538   2.101   8.211  0.1233  0.0715 -0.1047
 7201SOL    HW123044   0.615   2.050   8.184  1.0972  1.6746 -0.4837
 7201SOL    HW223045   0.554   2.189   8.177 -1.6537  0.5806  0.2608
 7202SOL     OW23046   6.896   7.115   2.050  0.1313  0.1855 -0.6623
 7202SOL    HW123047   6.815   7.087   2.008 -0.0563 -0.4890  0.1145
 7202SOL    HW223048   6.886   7.210   2.062 -1.3715 -0.1455  1.1048
 7203SOL     OW23049   4.322   3.280   8.028  0.0644 -0.6045  0.3120
 7203SOL    HW123050   4.375   3.201   8.018 -0.9051 -1.3070  0.5984
 7203SOL    HW223051   4.369   3.347   7.978 -0.2173 -1.8776 -1.7676
 7204SOL     OW23052   0.665   4.394   1.625 -0.3298 -0.0435 -0.2092
 7204SOL    HW123053   0.645   4.471   1.678  0.2668 -1.2069  1.8091
 7204SOL    HW223054   0.761   4.392   1.621 -0.3466 -0.5500 -0.4397
 7205SOL     OW23055   4.255   1.348   1.628  0.1710 -0.1447 -0.4834
 7205SOL    HW123056   4.271   1.269   1.680 -0.5969  0.3732  0.5600
 7205SOL    HW223057   4.173   1.383   1.661 -0.7959 -0.2291 -2.6189
 7206SOL     OW23058   2.599   6.616   8.766  0.0211  0.0411 -0.4342
 7206SOL    HW123059   2.571   6.558   8.837  0.5826  0.5022  0.1833
 7206SOL    HW223060   2.659   6.678   8.809 -0.7414  1.2205 -1.0272
 7207SOL     OW23061   6.061   4.014   5.379  0.2795  0.3243  0.2338
 7207SOL    HW123062   6.037   4.054   5.296 -1.3380 -1.6551 -0.3461
 7207SOL    HW223063   6.137   3.960   5.359 -0.8309 -1.0950 -0.2990
 7208SOL     OW23064   6.159   3.927   8.133  0.0220 -0.0560  0.2812
 7208SOL    HW123065   6.224   3.996   8.126 -0.8000  0.8725  1.4214
 7208SOL    HW223066   6.085   3.957   8.080  1.0996 -1.9075 -2.4659
 7209SOL     OW23067   4.607   1.984   1.991 -0.0916 -0.3843  0.7391
 7209SOL    HW123068   4.576   1.919   1.928 -0.8577  0.7925 -0.1748
 7209SOL    HW223069   4.558   1.965   2.071  0.8507 -1.8689  0.9923
 7210SOL     OW23070   1.596   4.778   7.354  0.9365  0.3123 -0.5275
 7210SOL    HW123071   1.634   4.722   7.286  0.5007  1.1995 -1.5332
 7210SOL    HW223072   1.547   4.845   7.306  1.0670  1.2942  0.6481
 7211SOL     OW23073   3.934   0.965   1.221 -0.0832  0.2862  0.0129
 7211SOL    HW123074   3.925   0.872   1.240 -0.4057  0.4807  0.8702
 7211SOL    HW223075   3.904   1.009   1.301  0.5295  1.1174 -0.1993
 7212SOL     OW23076   4.663   0.462   8.845  0.4028 -0.5548  0.3107
 7212SOL    HW123077   4.703   0.390   8.894 -1.1081 -3.0453 -1.8614
 7212SOL    HW223078   4.571   0.461   8.870  0.1437 -0.0987 -0.5658
 7213SOL     OW23079   4.054   1.980   4.766  0.7552 -0.5050 -0.3478
 7213SOL    HW123080   4.089   1.907   4.817 -0.3422  0.1767  1.4579
 7213SOL    HW223081   4.062   2.056   4.823 -0.6596  0.2584 -1.1075
 7214SOL     OW23082   3.780   3.064   6.105  0.5005  0.3348  0.2742
 7214SOL    HW123083   3.696   3.096   6.137  1.1755 -0.1469  2.7482
 7214SOL    HW223084   3.845   3.123   6.144  1.3203  1.0981 -2.1081
 7215SOL     OW23085   6.042   6.816  11.170  0.1518 -0.4458  0.0905
 7215SOL    HW123086   6.002   6.736  11.206 -0.7473  0.0008  0.1335
 7215SOL    HW223087   5.967   6.875  11.155  0.7837  0.3314 -0.0775
 7216SOL     OW23088   0.512   1.572   3.801  0.1691  0.0466 -0.5148
 7216SOL    HW123089   0.420   1.596   3.808  0.1496 -0.0119 -0.5675
 7216SOL    HW223090   0.548   1.588   3.888  0.4781  1.5941 -0.8805
 7217SOL     OW23091   6.913   3.147   1.126 -0.2079  0.0802 -0.0006
 7217SOL    HW123092   6.833   3.097   1.112 -1.2174  1.2644  1.3563
 7217SOL    HW223093   6.971   3.086   1.172 -1.1624 -0.0976  1.0089
 7218SOL     OW23094   2.044   1.029   0.894  0.0668 -0.5478 -0.0556
 7218SOL    HW123095   1.953   1.004   0.876 -0.1971 -0.2928  0.8420
 7218SOL    HW223096   2.044   1.049   0.987  0.7909  0.5521 -0.2803
 7219SOL     OW23097   4.522   5.655   3.475  0.1454 -0.6843 -0.0302
 7219SOL    HW123098   4.441   5.692   3.513  0.2426  0.6878 -1.1047
 7219SOL    HW223099   4.590   5.679   3.538  0.1025  0.4292 -0.3873
 7220SOL     OW23100   1.820   7.187  12.413 -0.4024 -0.2694 -0.3910
 7220SOL    HW123101   1.812   7.151  12.324  0.1464 -0.6807 -0.2832
 7220SOL    HW223102   1.755   7.138  12.464  0.6063 -1.4352 -0.1601
 7221SOL     OW23103   6.975   5.048   8.248  0.0604  0.3485 -0.3640
 7221SOL    HW123104   7.046   5.070   8.308 -0.3112  2.6364 -0.6674
 7221SOL    HW223105   7.002   4.966   8.207  1.7798  0.3735  0.6421
 7222SOL     OW23106   3.124   2.327   6.950  0.1813 -0.1456 -0.4372
 7222SOL    HW123107   3.091   2.297   6.865  2.3786  0.0722 -1.4446
 7222SOL    HW223108   3.076   2.275   7.014  0.2302 -2.1306 -1.9115
 7223SOL     OW23109   3.310   0.811   3.595 -0.4068  0.4674 -0.4425
 7223SOL    HW123110   3.218   0.786   3.587 -0.3010 -0.4885  0.9619
 7223SOL    HW223111   3.319   0.888   3.539 -1.9282  0.2525 -1.0206
 7224SOL     OW23112   4.276   6.890   2.847  1.0710 -0.2492  0.2776
 7224SOL    HW123113   4.201   6.944   2.872  0.7021 -1.2772  1.5133
 7224SOL    HW223114   4.337   6.951   2.806 -0.0982  0.7535 -0.0253
 7225SOL     OW23115   6.513   6.332  11.454 -0.4884 -0.4910 -0.2012
 7225SOL    HW123116   6.584   6.389  11.483 -0.8386 -0.0650 -0.1528
 7225SOL    HW223117   6.540   6.300  11.368 -1.4760  1.9863 -1.5495
 7226SOL     OW23118   6.546   4.767   1.776  0.3171  0.2220  0.1487
 7226SOL    HW123119   6.550   4.823   1.854  1.2819 -0.6436  0.7548
 7226SOL    HW223120   6.636   4.765   1.744  0.5666 -1.8531  0.8133
 7227SOL     OW23121   0.782   3.642   4.221  0.0338 -0.0990  0.0176
 7227SOL    HW123122   0.829   3.568   4.183 -0.8021  0.2232 -1.7955
 7227SOL    HW223123   0.728   3.675   4.149  0.2091  2.1401  0.8124
 7228SOL     OW23124   1.912   2.507   8.499 -0.3282 -0.1811  0.0139
 7228SOL    HW123125   1.881   2.518   8.589 -1.6471 -1.8389 -0.1852
 7228SOL    HW223126   1.869   2.577   8.450  0.8180  1.0691  0.7227
 7229SOL     OW23127   3.809   7.472  10.178 -0.0821 -0.5569  0.1359
 7229SOL    HW123128   3.728   7.441  10.138  0.1946 -0.1619 -0.7468
 7229SOL    HW223129   3.812   7.427  10.263 -1.1421 -0.6830  0.1193
 7230SOL     OW23130   3.798   0.255   4.171 -0.4114 -0.2041 -0.3579
 7230SOL    HW123131   3.807   0.245   4.077  0.3730 -1.7520 -0.1539
 7230SOL    HW223132   3.789   0.165   4.204 -1.1955  0.3358  0.9969
 7231SOL     OW23133   4.892   1.470   7.422  0.3128  0.0628 -0.1058
 7231SOL    HW123134   4.850   1.505   7.344 -0.5001  1.9962  1.1216
 7231SOL    HW223135   4.844   1.509   7.495  0.5854 -2.2187  1.4029
 7232SOL     OW23136   7.197   5.051   6.258 -0.2370 -0.3507 -0.1358
 7232SOL    HW123137   7.190   4.977   6.319 -0.6169 -0.6722 -0.5654
 7232SOL    HW223138   7.143   5.025   6.183  0.0749  0.1276 -0.5247
 7233SOL     OW23139   1.994   5.054   8.447  0.1100  0.0708  0.9365
 7233SOL    HW123140   1.900   5.046   8.432 -0.3871  3.6349  1.3799
 7233SOL    HW223141   2.016   4.979   8.502 -2.1512 -1.5319 -0.1679
 7234SOL     OW23142   1.431   6.887   1.064  0.1074  0.2285  0.1609
 7234SOL    HW123143   1.433   6.957   0.998 -0.1178  1.4464  1.3852
 7234SOL    HW223144   1.345   6.847   1.055 -0.0493  0.6093 -0.0727
 7235SOL     OW23145   0.069   7.239   0.049 -0.2726  0.6999 -0.0926
 7235SOL    HW123146   0.053   7.170   0.112  1.4322  0.3527  0.0172
 7235SOL    HW223147   0.161   7.261   0.061 -0.5668  2.4102 -0.7107
 7236SOL     OW23148   2.690   4.019  11.776  0.2889  1.0566 -0.4922
 7236SOL    HW123149   2.689   3.967  11.696 -0.6512 -1.3116  0.9441
 7236SOL    HW223150   2.612   4.074  11.770 -1.1882 -0.8846 -0.2111
 7237SOL     OW23151   3.751   4.684  11.432 -0.1312  0.2833 -0.0393
 7237SOL    HW123152   3.683   4.668  11.367 -1.2451 -0.0765  1.1721
 7237SOL    HW223153   3.806   4.606  11.430  0.2489  0.5603 -0.9956
 7238SOL     OW23154   3.865   0.981   1.954  0.0898  0.0050 -0.1713
 7238SOL    HW123155   3.915   0.899   1.956  0.7199  0.3749 -0.3991
 7238SOL    HW223156   3.927   1.046   1.920  0.2755  1.0168  1.9354
 7239SOL     OW23157   0.105   7.939  10.985 -0.0062 -0.0315 -0.1906
 7239SOL    HW123158   0.100   7.946  11.081 -0.5631  0.0795 -0.2204
 7239SOL    HW223159   0.079   7.848  10.967  1.4777 -0.4817 -0.1569
 7240SOL     OW23160   0.636   1.043   4.633 -0.3634 -0.1510  0.3641
 7240SOL    HW123161   0.641   1.090   4.550  0.3733 -1.2964 -0.2581
 7240SOL    HW223162   0.572   1.093   4.685 -0.7240  0.6620 -0.8275
 7241SOL     OW23163   1.869   4.190   4.322  0.3088  0.2646  0.6590
 7241SOL    HW123164   1.892   4.250   4.393  1.1874  0.7402 -0.0068
 7241SOL    HW223165   1.797   4.138   4.357 -1.1040  2.2894  0.9632
 7242SOL     OW23166   4.338   6.626   0.484 -0.3383  0.0482 -0.1609
 7242SOL    HW123167   4.379   6.612   0.569 -0.2041  0.2972 -0.1858
 7242SOL    HW223168   4.254   6.668   0.504  0.1825  1.1315 -0.2210
 7243SOL     OW23169   0.342   1.698   9.815 -0.2590 -0.1444  0.5353
 7243SOL    HW123170   0.437   1.697   9.803 -0.4305 -0.3096 -1.0563
 7243SOL    HW223171   0.309   1.637   9.749 -1.4663 -0.1318  1.1014
 7244SOL     OW23172   0.612   6.203   8.008 -0.0741 -0.0850  0.3473
 7244SOL    HW123173   0.550   6.177   8.076  0.0236 -1.2685  0.0016
 7244SOL    HW223174   0.580   6.289   7.979 -0.9911 -0.2479  0.8340
 7245SOL     OW23175   1.191   2.225   5.172 -0.1691  0.2369 -0.1812
 7245SOL    HW123176   1.129   2.290   5.207 -0.2416  0.5886 -0.9549
 7245SOL    HW223177   1.200   2.247   5.080  0.4606 -0.3435 -0.2657
 7246SOL     OW23178   7.845   5.098   2.834 -1.2364 -0.0671  0.2534
 7246SOL    HW123179   7.938   5.085   2.854 -1.4138  0.1831  1.3092
 7246SOL    HW223180   7.802   5.020   2.869 -1.7078  0.9621  2.0768
 7247SOL     OW23181   2.512   5.664   5.686 -0.2374 -0.0749 -0.0377
 7247SOL    HW123182   2.605   5.671   5.709 -0.6041 -0.2845  1.5847
 7247SOL    HW223183   2.505   5.581   5.640  0.5392  0.4129 -1.0749
 7248SOL     OW23184   4.993   1.467  12.335  0.0979 -0.1550  0.3658
 7248SOL    HW123185   4.990   1.563  12.339 -0.4116 -0.0989 -0.8927
 7248SOL    HW223186   4.995   1.447  12.241  0.6256 -1.3744  0.6131
 7249SOL     OW23187   4.803   3.674   0.143  0.3021 -0.1206  0.2375
 7249SOL    HW123188   4.775   3.698   0.055  0.8225 -1.4206 -0.2958
 7249SOL    HW223189   4.858   3.597   0.131 -0.2977 -0.8238  1.7671
 7250SOL     OW23190   2.965   4.824   3.557 -0.2780  0.3598 -0.1213
 7250SOL    HW123191   3.039   4.846   3.614 -0.0835 -0.8809  0.1296
 7250SOL    HW223192   2.958   4.728   3.562 -1.1247  0.3504 -1.1110
 7251SOL     OW23193   0.820   2.149   0.488 -0.0333  0.6837 -1.0635
 7251SOL    HW123194   0.898   2.095   0.498  0.4669  1.3758 -1.1514
 7251SOL    HW223195   0.751   2.088   0.461  0.9322  0.3536 -2.9504
 7252SOL     OW23196   1.817   4.609  12.098  0.1067 -0.0163 -1.0465
 7252SOL    HW123197   1.818   4.632  12.005  0.9953  2.4533 -0.5085
 7252SOL    HW223198   1.843   4.517  12.101  2.0081  0.3699 -3.1367
 7253SOL     OW23199   4.558   6.440   9.297 -0.0394 -0.0803  0.4994
 7253SOL    HW123200   4.496   6.483   9.356 -1.2436 -0.1208 -0.6639
 7253SOL    HW223201   4.564   6.499   9.222 -1.8265 -1.8828 -1.2019
 7254SOL     OW23202   2.157   6.821  12.313  0.8854 -0.2456  0.5383
 7254SOL    HW123203   2.097   6.896  12.318 -0.6877 -1.2098 -1.9246
 7254SOL    HW223204   2.115   6.761  12.252  2.7777 -2.5452  1.3590
 7255SOL     OW23205   1.444   7.321   9.737 -0.4703 -0.8147 -0.1322
 7255SOL    HW123206   1.513   7.279   9.787 -1.4853  0.3463  2.4236
 7255SOL    HW223207   1.364   7.277   9.764 -1.2926  1.2199  0.9691
 7256SOL     OW23208   5.122   6.156  11.366  0.6216 -0.0582  0.4432
 7256SOL    HW123209   5.054   6.090  11.381  3.2758 -2.8034  1.4069
 7256SOL    HW223210   5.158   6.134  11.280  0.4074  1.3041 -0.0164
 7257SOL     OW23211   1.777   4.154   2.492  0.3747  0.3309 -0.0202
 7257SOL    HW123212   1.808   4.215   2.424  0.3947 -1.2435 -1.5084
 7257SOL    HW223213   1.855   4.135   2.544  0.5000  1.0983  0.0805
 7258SOL     OW23214   4.193   2.305   3.531 -0.0574  0.0805 -0.1679
 7258SOL    HW123215   4.247   2.362   3.476  1.8734  2.0910  3.4798
 7258SOL    HW223216   4.243   2.224   3.539  0.6130  0.5314  0.2204
 7259SOL     OW23217   2.061   1.286   9.125  0.2651 -0.3571  0.8740
 7259SOL    HW123218   2.063   1.295   9.030 -1.0637 -0.5909  0.7988
 7259SOL    HW223219   2.038   1.194   9.140  0.1055 -0.2344  1.4137
 7260SOL     OW23220   6.480   4.310  10.160  0.2284 -0.1110 -0.5558
 7260SOL    HW123221   6.504   4.368  10.232 -0.9081 -0.1410 -0.1292
 7260SOL    HW223222   6.515   4.353  10.082 -0.9506  1.4025 -0.3063
 7261SOL     OW23223   7.571   1.260   5.085  0.3863 -0.4413 -0.4549
 7261SOL    HW123224   7.499   1.265   5.148  1.5935 -2.8553  1.2677
 7261SOL    HW223225   7.650   1.265   5.138  1.6076  1.9181 -2.2832
 7262SOL     OW23226   5.339   3.967  10.120 -0.0301 -0.0745  0.1254
 7262SOL    HW123227   5.360   4.061  10.122 -1.7213  0.3424  1.0656
 7262SOL    HW223228   5.293   3.952  10.203 -2.6872 -0.9795 -1.4047
 7263SOL     OW23229   6.309   2.349  10.412  0.4032 -0.2112  0.2029
 7263SOL    HW123230   6.333   2.439  10.436 -1.0815  0.4924 -0.7824
 7263SOL    HW223231   6.375   2.322  10.349 -0.1643  0.9040 -0.9085
 7264SOL     OW23232   6.697   6.650   8.672 -0.6384  0.0491 -0.6852
 7264SOL    HW123233   6.724   6.618   8.585 -1.1320  0.2419 -0.9151
 7264SOL    HW223234   6.619   6.597   8.693  0.4149 -1.1413  0.3681
 7265SOL     OW23235   4.901   1.083   8.975  0.3472  0.7039  0.0515
 7265SOL    HW123236   4.940   0.995   8.977 -0.6223  0.2464 -0.6814
 7265SOL    HW223237   4.936   1.122   8.895 -0.0733  0.5770 -0.1981
 7266SOL     OW23238   0.664   7.339  10.328 -0.2608  0.0003 -0.0446
 7266SOL    HW123239   0.726   7.326  10.400 -0.6612 -0.1191  0.2820
 7266SOL    HW223240   0.578   7.338  10.369 -0.4807  0.2578 -0.4831
 7267SOL     OW23241   3.906   0.736   9.157 -0.1424 -0.1450 -0.7593
 7267SOL    HW123242   3.982   0.724   9.213 -0.0603 -0.2133 -0.8842
 7267SOL    HW223243   3.943   0.750   9.070 -0.1692  2.4015 -0.4361
 7268SOL     OW23244   6.605   3.931  10.723  0.1315  0.3775 -0.2138
 7268SOL    HW123245   6.575   3.992  10.790 -0.5501 -1.0040  0.7811
 7268SOL    HW223246   6.544   3.943  10.650 -0.5066  0.3102  0.2983
 7269SOL     OW23247   7.658   2.970   5.144  0.0368  0.1180 -0.4457
 7269SOL    HW123248   7.643   2.984   5.051  1.1983  0.1222 -0.6453
 7269SOL    HW223249   7.684   2.878   5.151 -0.8163 -0.0977 -0.0197
 7270SOL     OW23250   5.762   6.445   2.334 -0.3378  0.2409 -0.4111
 7270SOL    HW123251   5.857   6.439   2.323  0.0019  1.2897  1.5474
 7270SOL    HW223252   5.734   6.353   2.337  0.9384 -0.1537  1.1716
 7271SOL     OW23253   5.479   7.760   3.505 -0.2044 -0.6441 -0.3457
 7271SOL    HW123254   5.493   7.752   3.410 -1.1075 -1.4177 -0.4171
 7271SOL    HW223255   5.514   7.847   3.526 -0.9436 -0.0210 -1.5669
 7272SOL     OW23256   5.188   7.126   7.371 -0.1119 -0.2380  0.0856
 7272SOL    HW123257   5.152   7.142   7.284  0.4280  1.7245  0.1879
 7272SOL    HW223258   5.179   7.209   7.417  0.4085 -0.9929  1.6277
 7273SOL     OW23259   5.978   3.586   7.299 -0.5512 -0.2737  0.3419
 7273SOL    HW123260   5.890   3.564   7.270 -0.6886 -0.9799  1.2685
 7273SOL    HW223261   5.966   3.618   7.389  0.1740 -0.7899  0.6301
 7274SOL     OW23262   7.436   6.722   4.880 -0.4626 -0.2427 -0.3886
 7274SOL    HW123263   7.400   6.807   4.854 -1.8951 -0.5462  0.5439
 7274SOL    HW223264   7.436   6.670   4.799 -0.3969  0.3542 -0.7794
 7275SOL     OW23265   5.588   5.844   1.771 -0.3244 -0.0399 -0.1266
 7275SOL    HW123266   5.631   5.882   1.847 -0.2945  1.9651 -1.0693
 7275SOL    HW223267   5.495   5.844   1.793 -0.3089  0.4715 -0.0418
 7276SOL     OW23268   6.061   5.563   9.775 -0.1091  0.0703  0.3432
 7276SOL    HW123269   6.152   5.562   9.803 -0.2935 -1.8432  1.0045
 7276SOL    HW223270   6.012   5.532   9.851 -0.8506 -3.1923 -1.2834
 7277SOL     OW23271   5.068   1.591   9.431 -0.7800  0.5013  0.5725
 7277SOL    HW123272   5.101   1.524   9.491 -0.2426  0.4663  0.2441
 7277SOL    HW223273   5.041   1.663   9.488 -1.0785  0.1272  0.9082
 7278SOL     OW23274   2.658   7.261   7.889  0.5935  0.0864  0.4219
 7278SOL    HW123275   2.678   7.246   7.797 -0.0637  0.9974  0.1193
 7278SOL    HW223276   2.711   7.337   7.913  0.4075  0.1346  0.6776
 7279SOL     OW23277   2.929   5.094  11.963  0.3677 -0.1209 -0.0776
 7279SOL    HW123278   2.953   5.002  11.947 -2.3076 -1.2852  1.9008
 7279SOL    HW223279   2.920   5.100  12.058 -3.1335  1.1018 -0.3477
 7280SOL     OW23280   6.885   5.064   6.844 -0.4645  0.1184 -0.1495
 7280SOL    HW123281   6.942   5.015   6.784 -0.5737  0.7303 -0.7531
 7280SOL    HW223282   6.925   5.051   6.930 -0.0137 -0.3347 -0.4226
 7281SOL     OW23283   6.963   6.855   7.171 -0.1176 -0.3926  0.3472
 7281SOL    HW123284   7.042   6.807   7.148 -0.8553 -1.2199 -0.5268
 7281SOL    HW223285   6.893   6.789   7.170 -1.0929  0.6105 -0.5026
 7282SOL     OW23286   3.844   5.690  10.938 -0.6252 -0.3422 -0.0503
 7282SOL    HW123287   3.859   5.667  11.030 -0.7054  2.6739  0.8171
 7282SOL    HW223288   3.918   5.747  10.916 -1.3530  0.1073 -1.4245
 7283SOL     OW23289   7.845   6.438  10.933  0.4179 -0.0790 -0.9585
 7283SOL    HW123290   7.843   6.480  10.847  0.1977  2.1545  0.0522
 7283SOL    HW223291   7.755   6.445  10.965 -0.0133 -2.8310 -1.3468
 7284SOL     OW23292   3.864   3.438   9.993  0.4726  0.5176  0.6618
 7284SOL    HW123293   3.850   3.515   9.938 -0.7071  0.5706  0.9976
 7284SOL    HW223294   3.831   3.465  10.079 -0.0515 -0.3953  0.7547
 7285SOL     OW23295   2.688   1.857   9.347 -0.6389  0.0500  0.1528
 7285SOL    HW123296   2.782   1.850   9.328 -0.7062  0.8268 -0.5030
 7285SOL    HW223297   2.683   1.865   9.442 -0.0283  0.2097  0.1728
 7286SOL     OW23298   6.112   7.752   1.804  0.4686 -0.2504  0.1111
 7286SOL    HW123299   6.030   7.784   1.767  0.8919 -1.1517 -1.7360
 7286SOL    HW223300   6.158   7.831   1.832 -0.7824  0.3018  0.6624
 7287SOL     OW23301   2.261   0.372   8.792  0.6872  0.6207  0.2783
 7287SOL    HW123302   2.165   0.363   8.785  0.8017 -1.1484  0.3799
 7287SOL    HW223303   2.275   0.393   8.884  0.4380 -0.5694  0.6129
 7288SOL     OW23304   6.527   5.617   5.496 -0.0259 -0.3958 -0.3007
 7288SOL    HW123305   6.577   5.663   5.429 -0.0608  0.5134  0.2764
 7288SOL    HW223306   6.593   5.573   5.550 -0.0435 -1.9215 -1.4608
 7289SOL     OW23307   1.720   0.127   0.226 -0.8370  0.4742 -0.3067
 7289SOL    HW123308   1.795   0.180   0.201 -0.3014 -0.6629 -1.1850
 7289SOL    HW223309   1.729   0.114   0.321  0.8864 -0.8316 -0.6114
 7290SOL     OW23310   6.818   1.719  11.591  0.5261 -0.6817  0.0359
 7290SOL    HW123311   6.770   1.661  11.532 -0.5957  0.5479 -0.3241
 7290SOL    HW223312   6.790   1.694  11.679  1.7334 -2.1098  0.0521
 7291SOL     OW23313   4.909   2.466   0.878 -0.2402 -0.4047 -0.0388
 7291SOL    HW123314   5.001   2.494   0.873 -0.1944 -0.4209  0.6536
 7291SOL    HW223315   4.912   2.386   0.930 -0.5720 -0.7874 -0.5925
 7292SOL     OW23316   0.045   5.905   6.186 -0.0318 -0.4814  0.0249
 7292SOL    HW123317   0.075   5.842   6.120  0.0100 -0.1922 -0.2360
 7292SOL    HW223318   0.104   5.979   6.177 -1.4750  0.5780 -1.2757
 7293SOL     OW23319   3.537   5.258   1.897  0.1289 -0.0679  0.7131
 7293SOL    HW123320   3.613   5.272   1.954 -1.1213  1.6810  2.0676
 7293SOL    HW223321   3.462   5.282   1.951 -1.2038  0.7465 -1.3703
 7294SOL     OW23322   1.357   0.953  10.410 -0.1983  0.2196  0.1288
 7294SOL    HW123323   1.412   1.029  10.388 -0.2570  0.2537  0.1002
 7294SOL    HW223324   1.366   0.945  10.505  0.1309  0.0150  0.0833
 7295SOL     OW23325   6.909   1.340   2.777 -0.6924  0.1114  0.0929
 7295SOL    HW123326   6.986   1.343   2.719 -0.7354 -0.3958  0.0101
 7295SOL    HW223327   6.889   1.432   2.793 -1.5234  0.3312 -1.8393
 7296SOL     OW23328   6.526   1.726   6.369 -0.6845  0.2630 -0.2573
 7296SOL    HW123329   6.558   1.802   6.418  0.2497 -1.1199  1.3856
 7296SOL    HW223330   6.477   1.675   6.433 -0.5963 -0.9540 -1.1303
 7297SOL     OW23331   4.170   1.902  11.214  0.4873 -0.2085 -0.3547
 7297SOL    HW123332   4.119   1.892  11.294 -2.0774  0.8049 -1.7464
 7297SOL    HW223333   4.210   1.989  11.221  2.8304 -1.2890  1.0677
 7298SOL     OW23334   5.911   3.275   9.155  0.5194 -1.0309 -0.0003
 7298SOL    HW123335   5.889   3.190   9.194  1.1475 -0.3020  2.0520
 7298SOL    HW223336   5.980   3.310   9.211  0.6519  0.6209 -1.1291
 7299SOL     OW23337   6.353   4.588  12.093  0.2345 -0.2013  0.3715
 7299SOL    HW123338   6.284   4.651  12.112  0.6724  0.3600  0.1281
 7299SOL    HW223339   6.430   4.622  12.138  0.6380 -0.2037 -0.2971
 7300SOL     OW23340   3.125   2.522   3.715  0.4310  0.3709 -0.1995
 7300SOL    HW123341   3.114   2.450   3.778  0.6136  0.8187  0.3548
 7300SOL    HW223342   3.134   2.479   3.630 -1.8157 -0.2081 -0.2222
 7301SOL     OW23343   1.369   3.896   0.998  0.1201 -0.0173 -0.1010
 7301SOL    HW123344   1.348   3.872   1.089 -0.6596  0.0273 -0.2653
 7301SOL    HW223345   1.442   3.839   0.975 -0.9107 -1.4043 -0.0666
 7302SOL     OW23346   0.909   3.516   9.692 -0.1054 -0.0626 -0.1310
 7302SOL    HW123347   0.894   3.500   9.785 -0.5822 -0.5812 -0.2922
 7302SOL    HW223348   0.822   3.517   9.653  0.0603  0.6126 -0.5043
 7303SOL     OW23349   5.477   0.011   4.855  0.7625  0.2493  0.0256
 7303SOL    HW123350   5.538   0.003   4.928  0.7179 -1.1453 -0.0734
 7303SOL    HW223351   5.400   0.054   4.893  0.3690 -1.2849  1.0508
 7304SOL     OW23352   0.165   1.268   0.721 -0.2075 -0.0416  0.0609
 7304SOL    HW123353   0.147   1.358   0.746  2.7605  1.1983 -1.7834
 7304SOL    HW223354   0.235   1.240   0.779 -0.7723 -1.0124  0.2949
 7305SOL     OW23355   7.410   2.320   4.981 -0.1753 -0.6615  0.5892
 7305SOL    HW123356   7.418   2.336   5.075  0.1486 -3.1842  1.0589
 7305SOL    HW223357   7.330   2.267   4.973 -0.7778  0.3755 -0.7179
 7306SOL     OW23358   3.224   0.253   1.167  0.2274  0.6657 -0.4930
 7306SOL    HW123359   3.318   0.264   1.160  0.1988  0.8872 -0.5374
 7306SOL    HW223360   3.203   0.284   1.255  0.0094  1.9445 -0.9801
 7307SOL     OW23361   1.716   5.025   6.174 -0.1486 -0.1407  0.1894
 7307SOL    HW123362   1.729   4.935   6.202  1.0396 -0.4312 -1.1629
 7307SOL    HW223363   1.769   5.077   6.235  0.4295 -0.5183  0.0226
 7308SOL     OW23364   0.751   3.285  12.290  0.2176  0.2172  0.3037
 7308SOL    HW123365   0.694   3.328  12.226 -0.7582  0.7416  1.4951
 7308SOL    HW223366   0.702   3.208  12.319  0.4956  0.1897  0.7062
 7309SOL     OW23367   6.559   6.110  10.243 -0.3014  0.0451  0.0393
 7309SOL    HW123368   6.605   6.172  10.186  0.3992 -0.4845  0.0023
 7309SOL    HW223369   6.466   6.129  10.230 -0.0989  1.6543  0.6738
 7310SOL     OW23370   2.228   5.666   3.498 -0.2753  0.3869  0.0988
 7310SOL    HW123371   2.237   5.748   3.547  0.6493 -0.4188  1.3568
 7310SOL    HW223372   2.290   5.674   3.426  0.2970  0.5583  0.5931
 7311SOL     OW23373   1.073   4.121   6.569 -0.0841  0.1188  0.1432
 7311SOL    HW123374   1.083   4.055   6.637  1.6711  0.3909  0.2077
 7311SOL    HW223375   0.984   4.108   6.535 -0.1795 -1.5112  0.9184
 7312SOL     OW23376   1.467   7.386   2.853  0.0937 -0.5240  0.2764
 7312SOL    HW123377   1.560   7.368   2.867 -0.1347 -0.5074  1.9196
 7312SOL    HW223378   1.452   7.470   2.895 -0.7857 -0.7815  0.4927
 7313SOL     OW23379   2.665   5.415   0.972  0.7462  0.5595 -0.6126
 7313SOL    HW123380   2.677   5.484   0.907  0.3857 -0.0111 -1.2965
 7313SOL    HW223381   2.614   5.457   1.042  0.8415  1.0831 -0.8481
 7314SOL     OW23382   7.925   1.442   5.595  0.0602 -0.2644  0.7501
 7314SOL    HW123383   7.934   1.456   5.500 -1.7268 -0.2000  0.5636
 7314SOL    HW223384   8.002   1.389   5.618  1.1379  0.6725 -0.5066
 7315SOL     OW23385   6.581   6.788   8.324  0.3231 -0.2066 -0.0690
 7315SOL    HW123386   6.607   6.709   8.278 -2.6061 -1.7354  0.6542
 7315SOL    HW223387   6.520   6.831   8.264  0.3832  0.4633  0.3379
 7316SOL     OW23388   0.688   5.356   9.805 -0.3710  0.0580  0.3591
 7316SOL    HW123389   0.702   5.326   9.895  0.6227  2.1636  0.9439
 7316SOL    HW223390   0.666   5.448   9.813 -1.0081  0.1188 -1.5414
 7317SOL     OW23391   4.936   0.405   9.063  0.6885  0.0258 -0.0048
 7317SOL    HW123392   4.852   0.387   9.022 -0.0902 -2.7052  2.4236
 7317SOL    HW223393   4.986   0.324   9.052  2.1153  0.7804  0.5958
 7318SOL     OW23394   7.497   6.076   9.403 -0.4037  0.1509 -0.3358
 7318SOL    HW123395   7.412   6.041   9.428  0.5799 -2.1177  0.1237
 7318SOL    HW223396   7.526   6.018   9.332  0.5877  1.1316 -0.7549
 7319SOL     OW23397   1.384   7.503   8.889  0.3195 -0.3707  0.2285
 7319SOL    HW123398   1.330   7.459   8.823  0.1434 -1.8203  1.2936
 7319SOL    HW223399   1.350   7.470   8.972  1.8488 -0.1190  0.9726
 7320SOL     OW23400   5.784   0.513   5.086 -0.1548  0.4694 -0.4055
 7320SOL    HW123401   5.745   0.453   5.150  1.2084  1.5838  1.5971
 7320SOL    HW223402   5.806   0.458   5.011 -2.6571 -0.7325 -0.3564
 7321SOL     OW23403   6.776   4.036   4.869 -0.0039 -0.0306 -0.1036
 7321SOL    HW123404   6.765   3.985   4.950  0.8128  0.5831  0.4191
 7321SOL    HW223405   6.736   4.121   4.889 -1.3735 -0.4341 -0.9752
 7322SOL     OW23406   6.409   6.657  11.631  0.1710 -0.1190  0.7733
 7322SOL    HW123407   6.342   6.678  11.566  2.4956 -0.1565 -1.7982
 7322SOL    HW223408   6.448   6.741  11.653  1.9937 -0.4113 -0.9982
 7323SOL     OW23409   6.255   6.865   6.468  0.2155  0.4488  0.4316
 7323SOL    HW123410   6.182   6.880   6.409 -0.3864  1.0772  1.3048
 7323SOL    HW223411   6.303   6.948   6.469 -0.0774  0.6169  1.2089
 7324SOL     OW23412   4.048   4.117   3.102 -0.2829 -0.3169 -0.3429
 7324SOL    HW123413   4.107   4.138   3.174  0.5428 -1.3983 -0.6829
 7324SOL    HW223414   4.004   4.200   3.083  0.6031  0.3459  0.3917
 7325SOL     OW23415   6.275   0.839  10.065  0.6938 -0.3771 -0.3144
 7325SOL    HW123416   6.215   0.914  10.060  0.6898 -0.4009 -0.5978
 7325SOL    HW223417   6.362   0.877  10.067  0.7778 -0.4136 -2.1132
 7326SOL     OW23418   6.298   6.435  10.557 -0.1849 -0.3769 -0.1725
 7326SOL    HW123419   6.206   6.451  10.537 -0.1179 -0.3868 -0.4928
 7326SOL    HW223420   6.325   6.365  10.496 -0.0062 -0.4750  0.0172
 7327SOL     OW23421   0.565   4.908   0.621 -0.1176 -0.7257  0.7426
 7327SOL    HW123422   0.522   4.970   0.679  0.0708  2.6516 -2.3694
 7327SOL    HW223423   0.654   4.941   0.613  0.0679 -1.5319 -0.8490
 7328SOL     OW23424   5.769   2.953   2.830 -0.1274  0.0563  0.4830
 7328SOL    HW123425   5.761   3.024   2.895  0.9604  0.5778  0.0822
 7328SOL    HW223426   5.719   2.983   2.755 -1.0000 -0.3368  0.8936
 7329SOL     OW23427   7.375   1.351   4.506 -0.7610  0.4244 -0.0659
 7329SOL    HW123428   7.355   1.263   4.540  0.9045  0.0158 -0.0336
 7329SOL    HW223429   7.291   1.397   4.506 -1.9742 -1.6053 -1.3922
 7330SOL     OW23430   5.381   2.811  10.946  0.0497 -0.4140 -0.3386
 7330SOL    HW123431   5.301   2.811  10.892 -0.1259 -0.1642 -0.0827
 7330SOL    HW223432   5.349   2.828  11.035  0.2006 -2.0793  0.0645
 7331SOL     OW23433   7.091   5.231   2.179 -0.6118  0.1122  0.1336
 7331SOL    HW123434   7.045   5.147   2.182 -3.9912  1.7424 -0.9834
 7331SOL    HW223435   7.094   5.253   2.086  1.6459  0.6009  0.2593
 7332SOL     OW23436   5.511   6.164   1.781 -0.1813  0.0339  0.4390
 7332SOL    HW123437   5.595   6.161   1.825  0.6200  0.2977 -0.9956
 7332SOL    HW223438   5.485   6.072   1.772  2.3181 -0.5363 -3.2757
 7333SOL     OW23439   0.583   0.873   5.489 -0.1228  0.2190 -0.0585
 7333SOL    HW123440   0.553   0.856   5.399  0.8334 -0.8758 -0.2026
 7333SOL    HW223441   0.590   0.786   5.528  0.5789  0.6040  0.6973
 7334SOL     OW23442   7.346   3.361   6.526  0.0891  0.1528  0.9340
 7334SOL    HW123443   7.385   3.293   6.472 -0.6039 -0.6822  1.4587
 7334SOL    HW223444   7.391   3.355   6.610  1.5997  1.8572  0.3165
 7335SOL     OW23445   2.861   5.558   5.439 -0.4271 -0.0458 -0.0354
 7335SOL    HW123446   2.957   5.553   5.440 -0.3572 -1.1151 -2.7984
 7335SOL    HW223447   2.841   5.649   5.458  1.3028  0.8034 -1.9792
 7336SOL     OW23448   7.727   4.584  10.148  0.1110 -0.2838 -0.4802
 7336SOL    HW123449   7.638   4.618  10.143  0.7360  1.7240  0.8168
 7336SOL    HW223450   7.767   4.611  10.066 -0.4781 -1.3227 -1.1338
 7337SOL     OW23451   0.415   4.121  10.637  0.5507 -0.3120 -0.1234
 7337SOL    HW123452   0.502   4.148  10.666  0.5788 -1.0156  0.4702
 7337SOL    HW223453   0.432   4.055  10.569  0.4819 -0.3242 -0.1284
 7338SOL     OW23454   7.267   4.295   9.348 -0.3219  0.1883 -0.0833
 7338SOL    HW123455   7.304   4.383   9.335  0.3922 -0.2864 -1.4496
 7338SOL    HW223456   7.185   4.296   9.298  0.0066 -0.1048 -0.6443
 7339SOL     OW23457   5.912   5.582   0.398  0.1920  0.2840  0.6398
 7339SOL    HW123458   5.995   5.578   0.444  0.0367 -2.4212  0.8507
 7339SOL    HW223459   5.855   5.522   0.446 -1.0665  0.1237 -0.9562
 7340SOL     OW23460   6.038   2.471   8.098  0.1371 -0.1275  0.2176
 7340SOL    HW123461   5.977   2.444   8.166  0.8125 -0.5638  0.6528
 7340SOL    HW223462   6.113   2.505   8.145  0.4787 -0.1381 -0.3132
 7341SOL     OW23463   5.518   0.353   5.057 -0.2653 -0.3347 -0.1136
 7341SOL    HW123464   5.537   0.263   5.082  0.2466 -0.0601  0.5181
 7341SOL    HW223465   5.549   0.361   4.967  0.7200 -0.4822  0.2054
 7342SOL     OW23466   3.663   7.006   1.897 -0.4125 -0.0720  0.3345
 7342SOL    HW123467   3.639   7.045   1.981  1.2022 -0.0784  0.8330
 7342SOL    HW223468   3.672   7.081   1.838 -0.2568  0.0511  0.5128
 7343SOL     OW23469   1.104   2.608   5.914 -0.2831 -0.0977  0.2768
 7343SOL    HW123470   1.075   2.679   5.856  1.9636 -1.0540 -2.2367
 7343SOL    HW223471   1.158   2.652   5.980 -0.9047  0.7753  0.2222
 7344SOL     OW23472   3.770   7.832   8.728 -0.4002 -0.2069 -0.3971
 7344SOL    HW123473   3.760   7.738   8.722 -3.9822  0.1081 -1.2470
 7344SOL    HW223474   3.835   7.854   8.661 -0.7600 -1.8985 -1.3384
 7345SOL     OW23475   4.938   0.065   6.742 -0.4018  0.0679 -0.6120
 7345SOL    HW123476   4.986   0.117   6.678 -0.3335  1.8276  0.7769
 7345SOL    HW223477   4.921  -0.019   6.698  2.6321 -0.1093 -1.6915
 7346SOL     OW23478   2.145   5.385  11.773  0.7687 -0.2020  0.1935
 7346SOL    HW123479   2.120   5.316  11.711 -1.4085 -0.3355  1.1439
 7346SOL    HW223480   2.105   5.359  11.856 -0.6916  2.4732  0.4323
 7347SOL     OW23481   6.751   4.832   0.470  0.2366  0.4139  0.0628
 7347SOL    HW123482   6.727   4.874   0.553 -1.0895 -0.0718 -0.0660
 7347SOL    HW223483   6.739   4.900   0.404  1.6094  0.9049  0.2659
 7348SOL     OW23484   3.980   1.564   0.509  0.4223 -0.3916 -0.2850
 7348SOL    HW123485   4.026   1.622   0.448 -0.3076 -0.5707 -1.0241
 7348SOL    HW223486   4.046   1.538   0.573  1.7405 -1.7984 -2.1257
 7349SOL     OW23487   3.528   1.909   8.108 -0.0022  0.5400  0.1859
 7349SOL    HW123488   3.478   1.989   8.124 -0.1358  0.4824  0.0592
 7349SOL    HW223489   3.569   1.890   8.192  0.8932  1.3322 -0.0583
 7350SOL     OW23490   0.836   6.819   5.181 -0.7683  0.4362  0.7480
 7350SOL    HW123491   0.813   6.777   5.098  1.8126  0.0912  0.1479
 7350SOL    HW223492   0.782   6.898   5.183 -1.0127  0.3641 -1.1857
 7351SOL     OW23493   6.829   3.743   5.908 -0.2872 -0.4518 -0.0656
 7351SOL    HW123494   6.743   3.702   5.907 -0.4223 -0.2041 -1.8277
 7351SOL    HW223495   6.812   3.835   5.929 -0.6071 -0.1524 -1.5541
 7352SOL     OW23496   4.470   7.186   1.146  0.7459 -0.7404 -0.0461
 7352SOL    HW123497   4.416   7.262   1.128  1.5866 -0.1562 -0.1413
 7352SOL    HW223498   4.545   7.195   1.087  0.4650 -2.0681 -0.6430
 7353SOL     OW23499   2.783   2.149   1.657 -0.0204 -0.4370 -0.2896
 7353SOL    HW123500   2.831   2.085   1.603 -0.6214 -3.0114  2.0299
 7353SOL    HW223501   2.747   2.098   1.729 -2.1614  2.2593  0.7293
 7354SOL     OW23502   7.675   3.586  10.256  0.9061 -0.0444 -0.0989
 7354SOL    HW123503   7.643   3.576  10.346  0.9656  0.8546  0.0262
 7354SOL    HW223504   7.625   3.521  10.206  2.0352 -1.7126  0.8461
 7355SOL     OW23505   7.506   5.608   0.250 -0.1744 -0.1668 -0.1738
 7355SOL    HW123506   7.476   5.518   0.260 -2.7997  0.5946 -0.3830
 7355SOL    HW223507   7.440   5.661   0.294  1.2554  1.6858 -0.1131
 7356SOL     OW23508   2.554   0.253   6.192  0.4453 -0.2563  0.1874
 7356SOL    HW123509   2.595   0.168   6.182 -0.2376 -0.4150 -2.0255
 7356SOL    HW223510   2.591   0.306   6.121 -0.4562  0.7101  0.4028
 7357SOL     OW23511   1.536   0.481   3.810  0.2855  0.3017 -0.2217
 7357SOL    HW123512   1.573   0.393   3.802  0.5921  0.3142  0.9435
 7357SOL    HW223513   1.464   0.471   3.873  0.1537  0.8431 -0.2797
 7358SOL     OW23514   4.068   7.375   7.416 -0.3034  0.0537  0.6379
 7358SOL    HW123515   4.127   7.419   7.477  0.1110 -0.8264  0.8815
 7358SOL    HW223516   3.985   7.369   7.464 -0.3028  0.3630  0.6825
 7359SOL     OW23517   0.095   5.428  12.093  0.6593 -0.0956 -0.1959
 7359SOL    HW123518   0.020   5.485  12.109  0.3389 -0.9831  1.8155
 7359SOL    HW223519   0.057   5.344  12.068  0.8977 -0.7044  1.3490
 7360SOL     OW23520   5.989   2.829  12.240 -0.1617 -0.3031 -0.3973
 7360SOL    HW123521   5.912   2.844  12.186  1.0844  0.6976 -1.9708
 7360SOL    HW223522   5.982   2.893  12.311  0.1851  1.1624 -1.6409
 7361SOL     OW23523   1.066   5.028   1.119  0.3223 -0.0614 -0.1324
 7361SOL    HW123524   1.029   4.942   1.141  1.2184 -0.0369  1.6448
 7361SOL    HW223525   1.091   5.065   1.204  1.1990  1.3925 -0.9953
 7362SOL     OW23526   0.745   6.767  10.807  0.3634 -0.4334  0.1906
 7362SOL    HW123527   0.780   6.821  10.736  1.9756  0.2337  1.4231
 7362SOL    HW223528   0.661   6.808  10.829  1.4517  1.4672  0.9493
 7363SOL     OW23529   7.046   0.896  12.118  0.1986  0.1838  0.1986
 7363SOL    HW123530   7.035   0.925  12.208  0.1830 -1.0679  0.6160
 7363SOL    HW223531   7.137   0.915  12.096  0.3509 -0.0140  0.6655
 7364SOL     OW23532   2.851   1.734   7.424 -0.0495  0.0150 -0.0687
 7364SOL    HW123533   2.857   1.746   7.329  0.2457 -1.7716 -0.3032
 7364SOL    HW223534   2.815   1.646   7.436 -0.6118  0.4161  1.4869
 7365SOL     OW23535   4.766   6.749   4.855  0.3142 -0.0856  0.4794
 7365SOL    HW123536   4.776   6.841   4.881 -0.4977  0.8524 -2.1406
 7365SOL    HW223537   4.792   6.699   4.932 -1.2928  2.3384  2.7807
 7366SOL     OW23538   0.425   4.261   8.489 -0.2146  0.1596 -0.0562
 7366SOL    HW123539   0.487   4.250   8.417 -1.1035  1.0701 -1.0001
 7366SOL    HW223540   0.479   4.262   8.568  0.9874  1.0632 -0.8588
 7367SOL     OW23541   7.469   1.115   1.800 -0.0169 -0.5638 -0.4160
 7367SOL    HW123542   7.466   1.101   1.895 -2.6625  1.1453 -0.1312
 7367SOL    HW223543   7.535   1.183   1.789 -0.6221  0.1807  0.3911
 7368SOL     OW23544   6.441   5.466   4.450 -0.4795 -0.0231 -0.1414
 7368SOL    HW123545   6.356   5.426   4.469 -0.6994  0.4322 -0.1615
 7368SOL    HW223546   6.479   5.411   4.381  0.1109 -1.3957  1.2263
 7369SOL     OW23547   0.074   4.673   6.490 -0.3034 -0.5445 -0.1195
 7369SOL    HW123548  -0.006   4.669   6.439  0.7245 -2.8823 -1.7514
 7369SOL    HW223549   0.130   4.735   6.443 -0.1970 -0.9664 -0.5627
 7370SOL     OW23550   6.611   6.670  11.984 -0.2799  0.4039 -0.0056
 7370SOL    HW123551   6.585   6.750  11.938  0.8381  1.0817  0.5010
 7370SOL    HW223552   6.706   6.675  11.989 -0.2390 -0.6760  0.5474
 7371SOL     OW23553   6.525   1.141   2.205  0.1711  0.0004 -0.1090
 7371SOL    HW123554   6.563   1.189   2.279  0.4217  0.6390 -0.6378
 7371SOL    HW223555   6.508   1.209   2.140 -0.9732 -0.4204 -0.2629
 7372SOL     OW23556   2.775   6.807  10.785  0.0229 -0.3323  0.3755
 7372SOL    HW123557   2.837   6.737  10.806 -0.4811 -1.0318 -0.4178
 7372SOL    HW223558   2.830   6.880  10.754  0.4989 -0.6280  0.5186
 7373SOL     OW23559   7.876   4.847   3.623 -0.6486  0.0246 -0.1698
 7373SOL    HW123560   7.922   4.930   3.610  0.6697 -0.6955 -0.2962
 7373SOL    HW223561   7.833   4.856   3.708  0.2046  0.5229  0.2215
 7374SOL     OW23562   2.459   7.857   6.972 -0.3103 -0.1720 -0.1741
 7374SOL    HW123563   2.539   7.905   6.950 -0.5081  0.3073  0.1562
 7374SOL    HW223564   2.422   7.904   7.046 -0.8928 -0.4080 -0.3136
 7375SOL     OW23565   6.215   6.858  11.804 -0.2684  0.4672 -0.2175
 7375SOL    HW123566   6.154   6.832  11.873  0.2726 -2.9561 -0.8313
 7375SOL    HW223567   6.176   6.824  11.723  1.2433  0.3521 -0.9426
 7376SOL     OW23568   0.362   3.003   3.900 -0.6927  0.2732 -0.0930
 7376SOL    HW123569   0.447   2.980   3.862 -0.5269  0.8362 -0.0629
 7376SOL    HW223570   0.343   3.090   3.866 -1.4491 -0.0120 -0.4195
 7377SOL     OW23571   6.118   2.539   2.703  0.0645  0.0695 -0.6724
 7377SOL    HW123572   6.032   2.498   2.711  0.4153 -0.2243  4.1111
 7377SOL    HW223573   6.167   2.479   2.646 -1.3916 -2.7153  0.8006
 7378SOL     OW23574   4.679   5.270   2.490  0.2760  0.3989 -0.0381
 7378SOL    HW123575   4.760   5.263   2.441  0.7440 -0.7815  0.8406
 7378SOL    HW223576   4.703   5.311   2.573 -0.4577  2.1430 -0.6477
 7379SOL     OW23577   2.435   7.827   8.335  0.1695  0.6086 -0.4536
 7379SOL    HW123578   2.507   7.872   8.379  0.9398  0.0082 -1.0742
 7379SOL    HW223579   2.356   7.866   8.373  0.8090  1.8281 -0.3145
 7380SOL     OW23580   6.044   2.127   4.419 -0.4923 -0.1899 -0.5444
 7380SOL    HW123581   6.125   2.087   4.450 -0.5018 -2.1708 -2.7096
 7380SOL    HW223582   6.071   2.181   4.345 -0.9457  0.7210 -0.0562
 7381SOL     OW23583   4.813   3.414   1.124 -0.2315  0.4024  0.1140
 7381SOL    HW123584   4.733   3.464   1.140 -0.4412 -0.0139  0.4035
 7381SOL    HW223585   4.883   3.470   1.159 -0.1537  1.6248 -1.8422
 7382SOL     OW23586   1.310   6.376   0.652 -0.0902  0.0319 -0.0595
 7382SOL    HW123587   1.405   6.372   0.637 -0.0529  1.6233 -0.5009
 7382SOL    HW223588   1.303   6.398   0.745  0.0590  1.5435 -0.3760
 7383SOL     OW23589   7.606   3.868  12.219  0.2395 -0.3696  0.1061
 7383SOL    HW123590   7.599   3.874  12.314  0.4494  0.2453  0.0871
 7383SOL    HW223591   7.690   3.909  12.198  1.1997 -2.3734 -0.1670
 7384SOL     OW23592   2.041   2.597  10.205  0.0125  0.1578 -0.3610
 7384SOL    HW123593   2.008   2.581  10.116 -0.6713 -0.5633  0.0079
 7384SOL    HW223594   2.093   2.519  10.226  0.6624  0.5909 -0.3428
 7385SOL     OW23595   3.544   2.081   3.070  0.4997 -0.3445 -0.5859
 7385SOL    HW123596   3.589   2.021   3.009  1.5145  0.6119 -0.8221
 7385SOL    HW223597   3.615   2.115   3.125 -0.3894 -1.0780  1.0514
 7386SOL     OW23598   7.774   2.817  10.203  0.4836  0.4241  0.4063
 7386SOL    HW123599   7.762   2.792  10.111  0.6116  1.4594  0.0953
 7386SOL    HW223600   7.712   2.761  10.250  1.1742 -0.8876 -0.1723
 7387SOL     OW23601   4.057   1.902  10.912 -0.2220 -0.3159 -0.0040
 7387SOL    HW123602   4.043   1.816  10.951 -1.1698  1.4887  4.1527
 7387SOL    HW223603   3.976   1.950  10.928  1.1327  2.1108  0.1197
 7388SOL     OW23604   3.000   6.462   9.334 -0.3208 -0.0087  0.0911
 7388SOL    HW123605   3.032   6.533   9.278  0.3698 -0.2255  0.2029
 7388SOL    HW223606   3.050   6.470   9.414 -0.7469 -0.1928  0.3807
 7389SOL     OW23607   7.310   0.843   3.548  0.0296 -0.0335 -0.0117
 7389SOL    HW123608   7.378   0.834   3.614  0.1163  1.1037  0.0584
 7389SOL    HW223609   7.271   0.929   3.563  0.1612  0.3273 -1.5272
 7390SOL     OW23610   6.546   7.535   4.594 -0.1955 -0.3230  0.8207
 7390SOL    HW123611   6.544   7.506   4.503 -1.0022  0.6682  0.5135
 7390SOL    HW223612   6.455   7.549   4.618  0.1021  1.5884  1.0505
 7391SOL     OW23613   7.117   0.351   7.477 -0.3181 -0.2804  0.5184
 7391SOL    HW123614   7.106   0.366   7.571  0.2167  0.0140  0.5368
 7391SOL    HW223615   7.028   0.345   7.443 -0.5634  1.6986  0.7143
 7392SOL     OW23616   1.749   2.669   8.349  0.2882 -0.6884 -0.0103
 7392SOL    HW123617   1.674   2.693   8.404 -0.5188  0.3784 -1.5176
 7392SOL    HW223618   1.710   2.628   8.272  1.3124 -0.8390 -0.4639
 7393SOL     OW23619   4.834   5.375   3.534  0.0402  0.2443 -0.1021
 7393SOL    HW123620   4.827   5.432   3.611 -1.2844 -0.3930  0.2779
 7393SOL    HW223621   4.770   5.305   3.550  1.8082 -1.5407 -0.4055
 7394SOL     OW23622   6.112   6.638   5.757 -0.1858  0.0200  0.4460
 7394SOL    HW123623   6.120   6.565   5.696 -1.6053 -0.6300  0.9976
 7394SOL    HW223624   6.184   6.697   5.733  0.1515 -0.8882 -0.9031
 7395SOL     OW23625   7.455   4.813   9.917 -0.3596  0.0585 -0.3151
 7395SOL    HW123626   7.506   4.884   9.957  0.4229  0.0670 -1.2983
 7395SOL    HW223627   7.512   4.736   9.923 -0.0244  0.1676 -1.8284
 7396SOL     OW23628   0.214   1.945   8.728 -0.1180  0.1092 -0.3457
 7396SOL    HW123629   0.146   2.012   8.731  1.1492  1.4511 -0.6585
 7396SOL    HW223630   0.271   1.965   8.802  0.4203 -0.4774 -0.5865
 7397SOL     OW23631   4.430   1.490   1.377  0.7109  0.1338  0.3515
 7397SOL    HW123632   4.426   1.394   1.378 -0.8969  0.1548 -0.5429
 7397SOL    HW223633   4.411   1.516   1.467  0.0343 -0.3753  0.3614
 7398SOL     OW23634   1.288   4.321   8.683  0.0370  0.0232 -0.5086
 7398SOL    HW123635   1.299   4.327   8.778 -0.1065  1.3925 -0.5600
 7398SOL    HW223636   1.377   4.313   8.649  0.1980  0.9458 -0.3314
 7399SOL     OW23637   7.682   5.740   0.636  0.0556 -0.2053 -0.2157
 7399SOL    HW123638   7.698   5.778   0.550 -1.1349 -0.2426 -0.4750
 7399SOL    HW223639   7.668   5.647   0.618 -0.0214 -0.2440  0.0450
 7400SOL     OW23640   0.817   1.754   0.917  0.8527  0.5621 -0.6790
 7400SOL    HW123641   0.734   1.736   0.963  1.3262  1.8404  0.7896
 7400SOL    HW223642   0.834   1.676   0.866 -0.2736 -0.5316  0.5419
 7401SOL     OW23643   6.985   4.673   7.458 -0.2517  0.0374  0.4393
 7401SOL    HW123644   6.936   4.640   7.383  1.7712  0.1173 -0.9756
 7401SOL    HW223645   7.071   4.696   7.423  0.4499  0.9560  2.6091
 7402SOL     OW23646   7.211   2.406   6.103 -0.0241 -0.3529  0.5495
 7402SOL    HW123647   7.156   2.330   6.082 -0.2091  0.2606 -1.3439
 7402SOL    HW223648   7.156   2.481   6.083 -0.0445  0.3614  2.9215
 7403SOL     OW23649   4.902   3.521   5.266  0.1011 -0.2011  0.0432
 7403SOL    HW123650   4.935   3.431   5.265 -1.0755 -0.6509 -1.6894
 7403SOL    HW223651   4.966   3.570   5.216 -0.3753 -0.5241 -0.9035
 7404SOL     OW23652   7.443   6.111   6.533  1.2852  0.2499 -0.0132
 7404SOL    HW123653   7.445   6.020   6.504 -0.3511  0.2210 -0.1196
 7404SOL    HW223654   7.535   6.137   6.536  1.9356 -1.9332  1.7261
 7405SOL     OW23655   4.635   6.199   9.418  0.1783  0.0892 -0.1325
 7405SOL    HW123656   4.692   6.158   9.353 -0.7085 -1.3882 -0.0174
 7405SOL    HW223657   4.619   6.287   9.383  0.1254 -0.4990 -1.6834
 7406SOL     OW23658   3.254   7.676   8.695 -0.0701  0.1947  0.2685
 7406SOL    HW123659   3.300   7.608   8.743  0.7431 -0.5706 -1.5159
 7406SOL    HW223660   3.322   7.738   8.668 -0.7107  1.4148  1.3052
 7407SOL     OW23661   1.065   3.028  11.566  0.0584  0.2367 -0.7728
 7407SOL    HW123662   1.082   3.072  11.483  0.1310  2.1489  0.2021
 7407SOL    HW223663   1.115   3.078  11.630  0.9289 -1.8952  0.2878
 7408SOL     OW23664   5.443   0.070  10.926  0.8237 -0.2112 -0.1994
 7408SOL    HW123665   5.487   0.053  10.842  2.7389 -0.3154  0.7633
 7408SOL    HW223666   5.425   0.164  10.924  0.2274 -0.3240 -0.9840
 7409SOL     OW23667   1.926   3.702   2.826  0.2763  0.3031 -0.4323
 7409SOL    HW123668   1.932   3.703   2.730  0.4233 -1.4309 -0.4653
 7409SOL    HW223669   1.838   3.669   2.844  0.5846 -0.3068  0.0126
 7410SOL     OW23670   2.979   5.606   4.885  0.1489  0.5190 -0.2228
 7410SOL    HW123671   3.053   5.574   4.834 -0.4333 -2.8176  0.7524
 7410SOL    HW223672   2.902   5.567   4.844 -0.4087 -1.5542  2.4319
 7411SOL     OW23673   5.053   3.155  12.388 -0.2204 -0.3521  0.3631
 7411SOL    HW123674   5.031   3.247  12.370  2.2630  0.0149 -1.3110
 7411SOL    HW223675   4.988   3.105  12.337  0.3446  0.5795 -1.3727
 7412SOL     OW23676   0.596   4.925  12.274  0.3020 -0.0817  0.0802
 7412SOL    HW123677   0.532   4.862  12.241 -1.5652  1.4559  0.5793
 7412SOL    HW223678   0.560   4.954  12.358  1.1321  1.5695 -0.0944
 7413SOL     OW23679   2.635   6.288   7.644 -0.3021 -0.1275  0.3213
 7413SOL    HW123680   2.718   6.266   7.600 -0.0644 -0.5954  0.9918
 7413SOL    HW223681   2.658   6.356   7.706 -0.5941  0.3568 -0.0921
 7414SOL     OW23682   1.971   7.276   9.907 -0.1268 -0.2089  0.5870
 7414SOL    HW123683   2.056   7.245   9.877 -0.3448 -0.6965  0.4487
 7414SOL    HW223684   1.927   7.307   9.827 -1.5152 -3.4279 -0.0624
 7415SOL     OW23685   1.038   4.626   6.919 -0.4142  0.1579  0.1020
 7415SOL    HW123686   1.004   4.559   6.978 -0.7139  0.2631  0.0501
 7415SOL    HW223687   0.961   4.658   6.872 -0.6263  2.0092  1.6106
 7416SOL     OW23688   5.025   2.195   8.117  0.1266 -0.7442 -0.0903
 7416SOL    HW123689   5.081   2.118   8.127  0.0392 -0.6625  1.2429
 7416SOL    HW223690   4.936   2.159   8.110  0.1699 -0.8034 -0.3178
 7417SOL     OW23691   6.477   7.341  10.825  0.0318 -0.3939 -1.0142
 7417SOL    HW123692   6.470   7.291  10.906 -1.6988 -2.2487 -2.2078
 7417SOL    HW223693   6.421   7.417  10.837  2.4003  1.2389  0.6863
 7418SOL     OW23694   3.387   0.715   6.081 -0.0064 -0.1577 -0.4989
 7418SOL    HW123695   3.358   0.734   6.170 -0.2933 -0.3182 -0.5585
 7418SOL    HW223696   3.378   0.799   6.035  1.8135  0.3984  0.0575
 7419SOL     OW23697   6.724   7.185  11.847 -0.1176 -0.1268 -0.3782
 7419SOL    HW123698   6.637   7.156  11.819  0.2412 -0.5498 -1.0956
 7419SOL    HW223699   6.760   7.230  11.770 -0.9354  2.9909  0.9034
 7420SOL     OW23700   3.194   2.072   2.217  0.0466 -0.1393  0.4090
 7420SOL    HW123701   3.284   2.093   2.243 -0.0736  0.0384  0.6836
 7420SOL    HW223702   3.151   2.157   2.210 -0.1124 -0.2280  0.3234
 7421SOL     OW23703   6.081   2.333   1.877  0.2457  0.4322  0.2622
 7421SOL    HW123704   6.028   2.356   1.953  0.8757  1.4756  0.4099
 7421SOL    HW223705   6.019   2.333   1.804 -0.7997 -2.6527  1.0069
 7422SOL     OW23706   6.156   1.795  11.137 -0.5932  0.6898  0.2203
 7422SOL    HW123707   6.148   1.737  11.061 -3.7912  2.9941 -1.4389
 7422SOL    HW223708   6.131   1.741  11.212 -1.1405 -0.6906 -0.9247
 7423SOL     OW23709   7.226   3.412  10.359 -0.8230 -0.2266  0.3903
 7423SOL    HW123710   7.143   3.437  10.398 -1.1717 -1.6831  0.6364
 7423SOL    HW223711   7.205   3.338  10.303 -0.1938  1.2856 -1.9912
 7424SOL     OW23712   2.651   4.569  11.185 -0.3365 -0.3732 -0.1517
 7424SOL    HW123713   2.560   4.554  11.210 -0.6452 -1.3488 -1.7301
 7424SOL    HW223714   2.680   4.487  11.146  0.6895  0.4352 -1.1762
 7425SOL     OW23715   3.595   7.391  11.278 -0.1633  0.4682  0.4279
 7425SOL    HW123716   3.657   7.378  11.350 -1.2273 -0.0856  1.2625
 7425SOL    HW223717   3.532   7.319  11.287 -0.8549  0.9404 -0.4914
 7426SOL     OW23718   6.661   4.391   3.832  0.3392 -0.2004  0.0671
 7426SOL    HW123719   6.644   4.372   3.739 -1.2649 -2.6080  0.7662
 7426SOL    HW223720   6.582   4.435   3.862  1.4260  1.8852  0.0329
 7427SOL     OW23721   0.624   5.651   5.594  0.2815  0.1311  0.3905
 7427SOL    HW123722   0.608   5.558   5.581 -1.0149  0.5963 -1.7236
 7427SOL    HW223723   0.563   5.695   5.536  3.5747  2.2265 -1.8351
 7428SOL     OW23724   1.515   6.176   7.347  0.2318 -0.0642  0.1489
 7428SOL    HW123725   1.453   6.243   7.377 -0.4381 -0.0797 -1.1257
 7428SOL    HW223726   1.459   6.104   7.319  0.8131 -0.0843 -1.0139
 7429SOL     OW23727   0.803   0.511   5.568  0.0697 -0.1276 -0.1715
 7429SOL    HW123728   0.753   0.449   5.621  0.7864  0.8067  1.6784
 7429SOL    HW223729   0.745   0.533   5.495 -1.4339 -0.5539  0.8502
 7430SOL     OW23730   2.077   1.735  10.488 -0.6822 -0.0307  0.0098
 7430SOL    HW123731   2.129   1.775  10.558 -0.9583 -1.5258  1.1118
 7430SOL    HW223732   2.135   1.737  10.411  0.5905 -0.6097  0.9114
 7431SOL     OW23733   0.593   0.093   4.921  0.2802  0.0240 -0.0498
 7431SOL    HW123734   0.581   0.167   4.861 -1.6628  0.2396  0.5219
 7431SOL    HW223735   0.568   0.127   5.007  2.7494 -0.3601  0.8949
 7432SOL     OW23736   2.547   2.670  11.740 -0.0531 -0.3985 -0.1888
 7432SOL    HW123737   2.609   2.629  11.801  0.8634 -0.2522 -0.9985
 7432SOL    HW223738   2.595   2.678  11.658 -1.0024  0.1433 -0.7169
 7433SOL     OW23739   7.216   0.624   7.418  0.3350  0.1993  0.3365
 7433SOL    HW123740   7.196   0.531   7.415  0.9419  0.0510  0.7359
 7433SOL    HW223741   7.300   0.630   7.464  0.6429  0.8944 -0.2918
 7434SOL     OW23742   4.323   6.086   6.122 -0.6686  0.0842 -0.0174
 7434SOL    HW123743   4.299   6.031   6.047 -1.1241 -0.6408  0.6438
 7434SOL    HW223744   4.382   6.152   6.086 -1.6065  0.3085 -1.1866
 7435SOL     OW23745   3.723   6.642   9.151 -0.4645 -0.2566 -0.1823
 7435SOL    HW123746   3.707   6.574   9.086 -0.3833 -0.0406 -0.4278
 7435SOL    HW223747   3.801   6.613   9.198 -0.7715 -0.6232  0.1006
 7436SOL     OW23748   3.677   1.561   1.855 -0.3725  0.2434 -0.0189
 7436SOL    HW123749   3.744   1.608   1.805  0.1448  0.3806  0.7856
 7436SOL    HW223750   3.623   1.518   1.789  0.8910 -0.3932 -0.6710
 7437SOL     OW23751   3.677   5.431   7.133  0.9615  0.2467 -0.1812
 7437SOL    HW123752   3.626   5.355   7.159  0.6879  0.2149 -0.7878
 7437SOL    HW223753   3.764   5.416   7.171  0.8329 -0.2304 -0.0668
 7438SOL     OW23754   4.333   4.884  10.799  0.0134 -0.6660 -0.3454
 7438SOL    HW123755   4.351   4.817  10.865 -1.6432  1.0478  2.0026
 7438SOL    HW223756   4.362   4.966  10.840  0.9671  0.2391 -2.6798
 7439SOL     OW23757   0.355   6.106   4.685 -0.7400  0.2267 -0.9320
 7439SOL    HW123758   0.350   6.195   4.719 -0.9556 -0.1403  0.0535
 7439SOL    HW223759   0.421   6.110   4.616 -0.8472  1.1751 -0.9899
 7440SOL     OW23760   4.872   6.664   6.008 -0.2444 -0.2517  0.1238
 7440SOL    HW123761   4.845   6.624   5.925 -1.4553  2.4492 -0.8982
 7440SOL    HW223762   4.942   6.724   5.983 -2.1020  2.2505  0.5815
 7441SOL     OW23763   5.191   2.308   5.847 -0.0259 -0.0750 -0.0287
 7441SOL    HW123764   5.141   2.384   5.877  0.8999  1.0810 -1.2295
 7441SOL    HW223765   5.282   2.337   5.852  0.2948 -0.7426 -1.3943
 7442SOL     OW23766   0.110   3.658   1.566  0.2990  0.2089  0.0737
 7442SOL    HW123767   0.135   3.685   1.477  2.8319 -1.1187  0.3105
 7442SOL    HW223768   0.186   3.612   1.600 -2.0566 -3.1732  1.3752
 7443SOL     OW23769   5.811   1.959   4.685  0.3917 -0.3300  0.6605
 7443SOL    HW123770   5.839   1.927   4.599 -0.9273  0.5780 -0.1321
 7443SOL    HW223771   5.763   1.885   4.724 -1.4921  0.1546 -0.6078
 7444SOL     OW23772   0.258   1.736   0.892 -0.1594 -0.0565 -0.0259
 7444SOL    HW123773   0.325   1.788   0.848  0.9363  0.1450  1.7847
 7444SOL    HW223774   0.215   1.798   0.951 -0.3414 -0.7208  0.5452
 7445SOL     OW23775   0.308   4.980   8.180  0.5281  0.7147 -0.1167
 7445SOL    HW123776   0.288   4.958   8.089  0.1367 -1.0800  0.3564
 7445SOL    HW223777   0.399   4.954   8.191  0.4428  0.5051  0.1106
 7446SOL     OW23778   7.052   6.424   8.368  0.5784  0.0328  0.5809
 7446SOL    HW123779   7.035   6.418   8.274 -0.8000 -0.0988  0.8264
 7446SOL    HW223780   7.143   6.453   8.374  0.0870  2.1273 -0.8267
 7447SOL     OW23781   7.463   4.231  11.717 -0.0903  0.5785  0.2460
 7447SOL    HW123782   7.430   4.318  11.738 -3.0883 -0.8546  2.2288
 7447SOL    HW223783   7.395   4.192  11.662  1.0379 -0.6370 -0.3650
 7448SOL     OW23784   6.363   2.708   3.190 -0.2859 -0.8414  0.7951
 7448SOL    HW123785   6.301   2.669   3.252 -1.3028 -0.7864 -0.1811
 7448SOL    HW223786   6.365   2.801   3.213 -0.7085 -0.8090  0.7010
 7449SOL     OW23787   4.905   4.499   8.773 -0.1710  0.4257  0.0722
 7449SOL    HW123788   4.881   4.524   8.684  1.3502 -0.4558 -0.6161
 7449SOL    HW223789   4.978   4.557   8.795  0.1837 -0.1113  0.3216
 7450SOL     OW23790   7.524   5.496   9.582 -0.3496 -0.1099  0.4014
 7450SOL    HW123791   7.568   5.415   9.554 -0.2303  0.0579  0.1015
 7450SOL    HW223792   7.544   5.503   9.675  0.5632  0.1568  0.1867
 7451SOL     OW23793   0.244   5.068  10.574 -0.4343 -0.2125  0.2247
 7451SOL    HW123794   0.205   5.000  10.518 -1.1338  0.8471 -0.6274
 7451SOL    HW223795   0.193   5.065  10.655  0.2713 -1.4353  0.6492
 7452SOL     OW23796   7.637   0.502   0.230 -0.7157 -0.1001 -0.0522
 7452SOL    HW123797   7.649   0.597   0.224 -1.1467  0.0090  0.6178
 7452SOL    HW223798   7.722   0.469   0.259  0.5849 -0.3671 -3.7183
 7453SOL     OW23799   7.124   0.839   4.246  0.0705 -0.4690 -0.1001
 7453SOL    HW123800   7.111   0.744   4.249 -1.3653 -0.3263 -0.6416
 7453SOL    HW223801   7.047   0.875   4.291  1.0233  0.4251  0.8516
 7454SOL     OW23802   0.968   5.451   1.276 -0.1821  0.4866  0.9278
 7454SOL    HW123803   0.890   5.425   1.324 -1.5177  0.1712 -1.2956
 7454SOL    HW223804   0.946   5.536   1.237  0.6404  0.4827  0.4183
 7455SOL     OW23805   6.830   4.202   5.921 -1.0350  0.2757  0.1036
 7455SOL    HW123806   6.911   4.200   5.971 -1.5580 -2.2223  1.0262
 7455SOL    HW223807   6.854   4.171   5.834 -0.3268  3.5809 -1.0140
 7456SOL     OW23808   4.180   3.026   0.415 -0.1313 -0.0780 -0.8289
 7456SOL    HW123809   4.249   2.960   0.401 -0.4750 -0.2073 -2.0315
 7456SOL    HW223810   4.116   3.007   0.347 -1.2678  0.1785  0.1411
 7457SOL     OW23811   4.487   7.165  11.917  0.3488  0.5600 -0.2737
 7457SOL    HW123812   4.423   7.102  11.953  1.9272 -1.0667 -0.1872
 7457SOL    HW223813   4.438   7.247  11.911 -1.7312 -0.5876 -0.1367
 7458SOL     OW23814   1.288   2.876   5.956 -0.9029  0.1751 -0.3699
 7458SOL    HW123815   1.354   2.814   5.925 -0.8802 -0.1509  0.3195
 7458SOL    HW223816   1.306   2.956   5.907  0.3167  0.2330  0.1375
 7459SOL     OW23817   6.582   3.588  12.247  0.2370 -0.0043 -0.1013
 7459SOL    HW123818   6.674   3.595  12.270  0.7751 -4.1265 -0.1673
 7459SOL    HW223819   6.582   3.588  12.151 -0.1039  1.7957 -0.1220
 7460SOL     OW23820   3.326   0.725   0.832  0.2585 -0.0965  0.2355
 7460SOL    HW123821   3.299   0.685   0.749 -1.4144  0.4274  0.4892
 7460SOL    HW223822   3.384   0.796   0.807  0.2840 -0.3503 -0.4477
 7461SOL     OW23823   4.307   5.870  12.222 -0.0391 -0.7085  0.2237
 7461SOL    HW123824   4.361   5.906  12.153  0.1403 -1.6741 -0.1526
 7461SOL    HW223825   4.325   5.925  12.298  0.9062 -0.5600 -0.0938
 7462SOL     OW23826   5.435   6.015  10.429  0.4468  0.5911  0.0111
 7462SOL    HW123827   5.386   6.096  10.413  1.1071  0.6921 -1.7606
 7462SOL    HW223828   5.447   5.977  10.342  1.2914 -0.7489  0.6802
 7463SOL     OW23829   6.845   1.825  12.014 -0.0708  1.2772 -0.4132
 7463SOL    HW123830   6.750   1.828  12.005 -0.0324  0.5127 -1.2014
 7463SOL    HW223831   6.865   1.895  12.075 -1.3662 -0.1664  1.8049
 7464SOL     OW23832   5.025   7.950   2.225  0.0302  0.1275  0.2659
 7464SOL    HW123833   5.107   7.963   2.177  0.4765  1.4118  1.3232
 7464SOL    HW223834   5.048   7.963   2.317 -1.1743 -0.4606  0.6814
 7465SOL     OW23835   2.759   1.492   1.432 -1.0665  0.0343  0.0842
 7465SOL    HW123836   2.684   1.552   1.436 -0.9140  0.2919 -0.6707
 7465SOL    HW223837   2.815   1.529   1.364 -0.3821 -0.3111  0.4574
 7466SOL     OW23838   2.570   0.545  11.143  0.1404 -0.2025 -0.2358
 7466SOL    HW123839   2.558   0.455  11.112 -0.9666 -0.6838  1.4596
 7466SOL    HW223840   2.491   0.563  11.194  1.0043  1.2372  0.6348
 7467SOL     OW23841   3.666   4.031   9.433  0.4396  0.4134  0.2001
 7467SOL    HW123842   3.675   3.964   9.365  1.4062  0.6985  0.0329
 7467SOL    HW223843   3.574   4.056   9.430  0.5693  0.7963 -1.3593
 7468SOL     OW23844   5.341   2.537   7.693 -0.3929 -0.0277  0.6825
 7468SOL    HW123845   5.303   2.593   7.760  0.3400  1.3479 -0.0125
 7468SOL    HW223846   5.396   2.595   7.641  2.4166 -1.8211  1.4015
 7469SOL     OW23847   2.006   4.972   0.328  0.0311 -0.0670 -0.0994
 7469SOL    HW123848   2.063   5.021   0.269  1.9868 -1.4607  0.5244
 7469SOL    HW223849   2.060   4.955   0.405 -0.0570 -4.1019 -0.7113
 7470SOL     OW23850   4.215   1.854   5.864  0.4971  0.2825  0.1187
 7470SOL    HW123851   4.121   1.847   5.880  0.0498  1.4184 -1.7723
 7470SOL    HW223852   4.253   1.867   5.951 -1.0559 -0.3787  0.9383
 7471SOL     OW23853   7.224   4.605   0.362 -0.0172 -0.0806 -0.3972
 7471SOL    HW123854   7.138   4.635   0.391 -0.4956 -2.0338  0.4127
 7471SOL    HW223855   7.234   4.640   0.274 -0.9337  1.4931  0.0842
 7472SOL     OW23856   6.250   4.227   6.926  0.2357 -0.3152 -0.6870
 7472SOL    HW123857   6.321   4.169   6.898 -1.1195 -1.6463 -1.5315
 7472SOL    HW223858   6.223   4.192   7.011 -0.1673 -0.5389 -0.9058
 7473SOL     OW23859   4.537   2.456  11.221  0.3049  0.1162  0.3465
 7473SOL    HW123860   4.613   2.511  11.200 -0.1794  1.4135  1.8298
 7473SOL    HW223861   4.471   2.481  11.156  1.6351 -2.3986 -2.2298
 7474SOL     OW23862   0.522   0.263  12.409  0.7615 -0.2287 -0.4368
 7474SOL    HW123863   0.547   0.290  12.497 -1.5443  0.2187  0.1487
 7474SOL    HW223864   0.521   0.168  12.412 -0.4362 -0.2044  0.3945
 7475SOL     OW23865   4.756   3.001   6.588  0.4007 -0.1380  0.2328
 7475SOL    HW123866   4.793   3.074   6.539  0.8563  0.4733  1.4349
 7475SOL    HW223867   4.812   2.994   6.666 -0.4332 -0.9113  0.7822
 7476SOL     OW23868   6.081   4.784   7.677 -0.3783  0.3295  0.2168
 7476SOL    HW123869   6.058   4.696   7.705  0.4138  0.2529  0.6624
 7476SOL    HW223870   6.009   4.811   7.620 -1.0428 -0.2780  0.7472
 7477SOL     OW23871   5.843   1.850   1.092 -0.2243 -0.3125  0.8671
 7477SOL    HW123872   5.811   1.785   1.029  0.6627  2.1481 -2.3718
 7477SOL    HW223873   5.930   1.818   1.116 -0.6033 -1.3345  0.9534
 7478SOL     OW23874   5.259   2.118   1.227  0.0786  0.3759 -0.3525
 7478SOL    HW123875   5.173   2.130   1.267 -0.0641  0.0455 -0.5503
 7478SOL    HW223876   5.321   2.136   1.297 -0.1690 -0.2177  0.0240
 7479SOL     OW23877   6.953   4.932   5.086 -0.0653  0.0426 -0.2334
 7479SOL    HW123878   7.042   4.916   5.054 -0.1500  0.8228 -0.8864
 7479SOL    HW223879   6.943   5.027   5.083 -0.7764 -0.0114  0.2412
 7480SOL     OW23880   3.578   1.452  12.185  0.1950  0.4937 -0.0261
 7480SOL    HW123881   3.556   1.430  12.095 -0.1630 -0.8691  0.3592
 7480SOL    HW223882   3.673   1.439  12.190  0.3134  1.2111 -0.3645
 7481SOL     OW23883   3.845   5.319   9.312  0.0737 -0.4048 -0.3518
 7481SOL    HW123884   3.749   5.320   9.311 -0.0119  2.3247  1.0378
 7481SOL    HW223885   3.871   5.379   9.243  0.7523 -0.2419  0.0353
 7482SOL     OW23886   1.969   4.489   1.019  0.4001 -0.2235  0.0979
 7482SOL    HW123887   1.895   4.527   0.972  0.0066 -1.1080 -0.0203
 7482SOL    HW223888   1.976   4.400   0.984  2.1090  0.1356 -0.5701
 7483SOL     OW23889   6.891   6.313   9.980 -0.0149  0.2195  0.4583
 7483SOL    HW123890   6.957   6.277   9.921  0.2480  0.3157  0.6944
 7483SOL    HW223891   6.873   6.401   9.946 -0.9066 -0.2372 -0.3238
 7484SOL     OW23892   2.263   0.003  11.205  0.5139 -0.5334  0.1164
 7484SOL    HW123893   2.215  -0.080  11.198  0.0848 -0.2843  0.0568
 7484SOL    HW223894   2.264   0.036  11.115 -1.3586  0.6496  0.4688
 7485SOL     OW23895   7.351   2.854   7.580  0.2035  0.2510 -0.0512
 7485SOL    HW123896   7.272   2.903   7.602 -0.1712  0.5303 -1.8933
 7485SOL    HW223897   7.418   2.887   7.641 -0.6162  1.4040  0.2499
 7486SOL     OW23898   7.903   1.168   3.642 -0.2748  0.3499 -0.3618
 7486SOL    HW123899   7.860   1.245   3.606 -1.0095 -0.0797 -0.4391
 7486SOL    HW223900   7.929   1.193   3.730 -1.5432  0.3480  0.0447
 7487SOL     OW23901   5.527   4.031  11.479  0.1174  0.1576  0.1092
 7487SOL    HW123902   5.521   3.936  11.479 -0.8374  0.1707  1.7372
 7487SOL    HW223903   5.500   4.056  11.567 -2.4241  2.0894 -1.0896
 7488SOL     OW23904   0.745   5.809   3.705  0.0189 -0.3043  0.1662
 7488SOL    HW123905   0.698   5.727   3.691  0.0915 -0.4211  0.5808
 7488SOL    HW223906   0.788   5.827   3.622  0.9152 -1.2839  0.3979
 7489SOL     OW23907   0.703   7.781   7.269  0.2487 -0.5127 -0.1726
 7489SOL    HW123908   0.690   7.817   7.181  1.8514  0.2136 -0.1517
 7489SOL    HW223909   0.620   7.798   7.314  0.5797  2.2999 -0.4834
 7490SOL     OW23910   6.838   2.078  11.185  0.1654  0.0630  0.6031
 7490SOL    HW123911   6.783   2.156  11.198  2.1198  1.8337 -0.9358
 7490SOL    HW223912   6.777   2.011  11.155 -1.5353  1.1128  1.4992
 7491SOL     OW23913   5.946   2.512   9.720  0.4881  0.2770 -0.2350
 7491SOL    HW123914   5.890   2.436   9.736 -0.3334  1.1355  1.2716
 7491SOL    HW223915   5.988   2.494   9.636 -1.0254 -1.0269 -0.7744
 7492SOL     OW23916   7.499   6.420   8.813 -0.0919 -0.6077 -0.4624
 7492SOL    HW123917   7.481   6.512   8.835 -0.0393 -0.5080 -0.8247
 7492SOL    HW223918   7.436   6.401   8.743  0.8485 -0.4182 -1.3795
 7493SOL     OW23919   2.408   2.244   2.001  0.6986 -0.5020 -0.0023
 7493SOL    HW123920   2.430   2.285   2.085 -1.7338  1.3567 -0.1621
 7493SOL    HW223921   2.459   2.293   1.937  0.8812 -0.4506  0.1785
 7494SOL     OW23922   5.943   3.444   7.612 -0.3162  0.1849 -0.0947
 7494SOL    HW123923   5.851   3.449   7.638  0.2162 -0.8785  2.2342
 7494SOL    HW223924   5.940   3.430   7.517 -2.4532  2.6349 -0.4961
 7495SOL     OW23925   4.247   6.810   2.570 -0.1339 -0.3068 -0.2559
 7495SOL    HW123926   4.252   6.762   2.652 -1.1631 -0.7017 -0.4066
 7495SOL    HW223927   4.209   6.747   2.508  0.8396 -0.1000 -1.1051
 7496SOL     OW23928   2.265   6.042   4.306 -0.8352 -0.0044  0.7651
 7496SOL    HW123929   2.205   6.030   4.380 -0.8417  0.7934  0.8958
 7496SOL    HW223930   2.279   6.136   4.301  1.0779 -0.2254  1.2675
 7497SOL     OW23931   4.392   7.009   3.181 -0.3748  0.3783 -0.0045
 7497SOL    HW123932   4.338   7.087   3.166  0.8247  1.1035 -0.6106
 7497SOL    HW223933   4.411   7.011   3.275 -0.6472  0.6153  0.0480
 7498SOL     OW23934   4.142   4.933   1.528  0.4492 -0.3496 -0.0844
 7498SOL    HW123935   4.072   4.944   1.592  0.2535  0.3467 -0.4079
 7498SOL    HW223936   4.180   4.848   1.549 -1.0587 -1.1526 -0.4773
 7499SOL     OW23937   4.424   5.227   2.966  0.2001  0.1214  0.1758
 7499SOL    HW123938   4.356   5.278   3.011  0.3397 -1.4735  2.3328
 7499SOL    HW223939   4.377   5.155   2.924  0.4650 -0.7783  1.3676
 7500SOL     OW23940   6.217   5.693   4.380 -0.5422 -0.0572  0.2134
 7500SOL    HW123941   6.147   5.725   4.324  0.4803 -1.1162 -1.7883
 7500SOL    HW223942   6.195   5.602   4.398  0.1360 -0.3074 -0.1661
 7501SOL     OW23943   0.059   6.034   9.751  0.1569 -0.0460  0.0356
 7501SOL    HW123944   0.018   5.999   9.830 -0.0485  1.6703  0.7305
 7501SOL    HW223945  -0.014   6.055   9.693  0.3465 -2.7760 -1.3506
 7502SOL     OW23946   3.962   6.175   8.031  0.0330 -0.3831 -0.0834
 7502SOL    HW123947   4.043   6.212   7.995 -0.8751  0.8983 -0.8992
 7502SOL    HW223948   3.900   6.179   7.959 -1.1552 -0.0379  0.9292
 7503SOL     OW23949   1.972   6.851   0.525 -0.3052 -0.4630  0.1042
 7503SOL    HW123950   2.043   6.787   0.518  0.4356  0.2798  0.6982
 7503SOL    HW223951   1.928   6.847   0.440 -1.1569 -2.7478  0.5648
 7504SOL     OW23952   2.615   3.347   8.800  0.3556 -0.1823 -0.0525
 7504SOL    HW123953   2.699   3.341   8.846  0.6710  0.8275 -0.4541
 7504SOL    HW223954   2.640   3.359   8.708 -0.2540 -2.0911 -0.4979
 7505SOL     OW23955   6.148   4.748   6.712 -0.1612  0.1972  0.3300
 7505SOL    HW123956   6.190   4.696   6.644 -0.2844  0.3542  0.1322
 7505SOL    HW223957   6.113   4.684   6.774 -0.7755  0.0236 -0.1856
 7506SOL     OW23958   6.312   4.738   4.066  0.1300  0.3735 -0.8689
 7506SOL    HW123959   6.357   4.769   4.144  1.9138 -0.1601 -1.6328
 7506SOL    HW223960   6.231   4.789   4.063 -0.8830 -0.7825  2.2474
 7507SOL     OW23961   5.008   0.374   2.966 -0.6308  0.1592 -0.0915
 7507SOL    HW123962   5.017   0.354   2.873 -0.0944  0.0128 -0.0106
 7507SOL    HW223963   5.098   0.380   2.998 -0.6692  3.2693 -0.2313
 7508SOL     OW23964   3.702   6.601   5.913 -0.0109 -0.6545  0.4787
 7508SOL    HW123965   3.698   6.650   5.831  1.0125 -2.1078 -0.4840
 7508SOL    HW223966   3.664   6.660   5.978 -1.1323  0.4266 -1.0797
 7509SOL     OW23967   3.039   4.200  10.759  0.1334  0.3539  0.0021
 7509SOL    HW123968   2.965   4.260  10.770 -0.5356 -0.5426  0.5405
 7509SOL    HW223969   3.019   4.152  10.678  0.2149  0.2341  0.0530
 7510SOL     OW23970   3.334   1.530   4.389 -0.0078  0.2499 -0.0022
 7510SOL    HW123971   3.267   1.546   4.455 -1.4096 -0.7994 -1.1005
 7510SOL    HW223972   3.402   1.479   4.434 -1.3293 -1.1769  0.4612
 7511SOL     OW23973   1.549   7.838   4.007  0.1141  0.1422  0.0364
 7511SOL    HW123974   1.519   7.928   4.019  0.0986  0.1137  0.2113
 7511SOL    HW223975   1.645   7.844   4.012  0.0722 -0.1296  2.0633
 7512SOL     OW23976   4.925   3.845   0.640 -0.4208  0.9026  0.4181
 7512SOL    HW123977   4.962   3.926   0.604 -0.6699  0.2077 -1.5310
 7512SOL    HW223978   4.925   3.784   0.566  2.8071 -2.0000  2.4928
 7513SOL     OW23979   5.641   3.216   3.964  0.0549  0.2151  0.5178
 7513SOL    HW123980   5.548   3.215   3.990 -0.6127  0.6668 -1.6677
 7513SOL    HW223981   5.654   3.302   3.925  1.7637  0.6179  1.8705
 7514SOL     OW23982   5.173   1.779  11.938  0.4726 -0.1048 -0.4281
 7514SOL    HW123983   5.124   1.748  11.862 -0.3273 -1.0118  0.4248
 7514SOL    HW223984   5.253   1.726  11.940  0.4212 -0.1839 -0.5433
 7515SOL     OW23985   1.901   0.518   2.429  0.3918 -0.4564  0.0382
 7515SOL    HW123986   1.997   0.514   2.426  0.4653  1.0845 -2.1732
 7515SOL    HW223987   1.872   0.444   2.376  0.3821 -0.4052 -0.0278
 7516SOL     OW23988   0.369   5.997   0.624 -0.3303  0.4473  0.2207
 7516SOL    HW123989   0.358   5.908   0.589 -0.8003  0.7408 -0.4108
 7516SOL    HW223990   0.300   6.048   0.581  0.1035  1.1754  0.3653
 7517SOL     OW23991   4.387   6.736  12.041 -0.5211  0.4494  0.6386
 7517SOL    HW123992   4.333   6.668  12.081 -0.9676  0.7112  0.4935
 7517SOL    HW223993   4.418   6.697  11.959 -2.7110  1.1985 -0.6359
 7518SOL     OW23994   5.058   0.355   2.699  0.1175  0.0135  0.1616
 7518SOL    HW123995   5.125   0.411   2.661 -1.1576  1.2978 -0.2994
 7518SOL    HW223996   5.093   0.266   2.690  1.8682  0.6511  0.2379
 7519SOL     OW23997   6.043   1.428   7.685 -0.6043 -0.4471 -0.0881
 7519SOL    HW123998   5.999   1.344   7.702 -0.6180 -1.0222 -2.6217
 7519SOL    HW223999   6.123   1.424   7.736 -0.7923 -1.8432  0.1360
 7520SOL     OW24000   1.110   7.324   3.933 -0.2318 -0.0854 -0.1634
 7520SOL    HW124001   1.156   7.269   3.870  0.6478 -0.6196  0.9088
 7520SOL    HW224002   1.175   7.386   3.964 -0.4936 -0.1885  0.6268
 7521SOL     OW24003   1.730   6.241   4.379  0.1743 -0.1316  0.0957
 7521SOL    HW124004   1.768   6.313   4.428  0.2029  0.4535 -0.7681
 7521SOL    HW224005   1.745   6.164   4.435  3.2351 -0.0779 -0.4510
 7522SOL     OW24006   0.428   6.985   7.294  0.5955 -0.1833  0.1654
 7522SOL    HW124007   0.485   6.921   7.336  0.6756 -0.8259 -0.8899
 7522SOL    HW224008   0.366   6.932   7.243  1.9833  0.5443 -2.4623
 7523SOL     OW24009   7.704   2.838   4.448 -0.1224  0.4584 -0.4604
 7523SOL    HW124010   7.728   2.778   4.519 -0.4889  0.0324 -0.6964
 7523SOL    HW224011   7.613   2.863   4.468 -2.0264 -3.3278 -3.2306
 7524SOL     OW24012   5.983   7.262   3.093 -0.0688  0.3748  0.1666
 7524SOL    HW124013   6.073   7.237   3.073  0.6229  2.0385  1.0305
 7524SOL    HW224014   5.944   7.182   3.127  0.9769 -0.4637 -0.5269
 7525SOL     OW24015   0.726   7.316   2.821 -0.1315 -0.1387  0.2474
 7525SOL    HW124016   0.782   7.394   2.820  0.2285 -0.3726 -1.3705
 7525SOL    HW224017   0.637   7.350   2.817  0.0223  0.2164 -0.4255
 7526SOL     OW24018   3.545   2.789   9.747  0.5299  0.0464  0.0817
 7526SOL    HW124019   3.615   2.774   9.811 -0.5971 -0.1897  1.3112
 7526SOL    HW224020   3.516   2.702   9.723 -2.0846  0.0127  2.7729
 7527SOL     OW24021   0.500   4.554   5.396 -0.5524 -0.5018  0.0465
 7527SOL    HW124022   0.512   4.647   5.374  0.4180 -0.6674 -0.1433
 7527SOL    HW224023   0.512   4.550   5.490  0.7524 -0.6296 -0.1103
 7528SOL     OW24024   2.630   6.546   1.246  0.0861 -0.6034 -0.0097
 7528SOL    HW124025   2.556   6.516   1.193 -0.3600  2.2443 -1.1697
 7528SOL    HW224026   2.707   6.512   1.200 -0.4087 -0.8765 -0.6481
 7529SOL     OW24027   0.672   0.927   8.058 -0.1335 -0.1279  0.0388
 7529SOL    HW124028   0.583   0.951   8.034 -0.4017 -1.4902 -0.4228
 7529SOL    HW224029   0.695   0.987   8.130 -1.5873 -0.0821  0.4894
 7530SOL     OW24030   3.162   6.715   7.389 -0.1083 -0.2441  0.2848
 7530SOL    HW124031   3.130   6.715   7.479 -1.1605  0.0229 -0.0726
 7530SOL    HW224032   3.082   6.717   7.335  0.5189  0.4569 -0.6482
 7531SOL     OW24033   7.479   5.521   7.288 -0.5052  0.5960 -0.1713
 7531SOL    HW124034   7.532   5.441   7.278 -1.1219 -0.0275  1.2632
 7531SOL    HW224035   7.403   5.506   7.231  0.6326  1.3261 -1.9348
 7532SOL     OW24036   6.418   4.834  10.494 -0.0379  0.3691  0.5960
 7532SOL    HW124037   6.399   4.757  10.441  2.3192 -0.3619  0.7084
 7532SOL    HW224038   6.390   4.810  10.582 -0.4109  0.1119  0.4107
 7533SOL     OW24039   2.027   1.842   1.210 -0.0240 -0.2778  0.0312
 7533SOL    HW124040   2.003   1.924   1.168 -1.2438 -1.7909 -2.4811
 7533SOL    HW224041   1.944   1.802   1.234  0.5416 -0.8515  1.1361
 7534SOL     OW24042   0.762   5.547   0.338 -0.4711  0.0317 -0.5034
 7534SOL    HW124043   0.794   5.633   0.312 -0.6125  0.6414  1.1760
 7534SOL    HW224044   0.714   5.515   0.262  0.3868  1.0119 -1.4935
 7535SOL     OW24045   7.738   6.715   6.251  0.4068 -0.1058  0.4541
 7535SOL    HW124046   7.770   6.747   6.166 -0.2752  1.8196  0.8595
 7535SOL    HW224047   7.814   6.673   6.291  0.5542 -1.7094 -1.3779
 7536SOL     OW24048   6.776   3.158   9.753 -0.0220 -0.7186  0.0822
 7536SOL    HW124049   6.703   3.213   9.724  1.1577  1.1291  0.4168
 7536SOL    HW224050   6.765   3.151   9.847  0.8119  0.5270  0.2952
 7537SOL     OW24051   4.246   2.763   2.993  0.2477 -0.4772  0.4816
 7537SOL    HW124052   4.288   2.717   2.921 -0.2088  1.0279 -0.8156
 7537SOL    HW224053   4.225   2.695   3.057 -0.3229 -2.0353 -1.2745
 7538SOL     OW24054   5.865   6.834   8.937 -0.1976 -0.5435 -0.0833
 7538SOL    HW124055   5.935   6.769   8.943 -0.1874 -0.4687  0.7763
 7538SOL    HW224056   5.797   6.791   8.885  1.6803  0.5191 -3.6997
 7539SOL     OW24057   3.691   4.092   3.768 -0.0658 -0.0968  0.2889
 7539SOL    HW124058   3.600   4.114   3.752 -0.5574 -2.8873 -1.1646
 7539SOL    HW224059   3.689   4.006   3.810  1.8816 -2.4084 -3.7971
 7540SOL     OW24060   2.818   5.166   2.760  0.3897 -0.1105  0.3530
 7540SOL    HW124061   2.749   5.112   2.797  1.6213 -2.4527 -0.5610
 7540SOL    HW224062   2.849   5.117   2.684  1.1568  2.2285 -0.9550
 7541SOL     OW24063   0.452   4.283  11.045  0.0123 -0.5316 -0.0941
 7541SOL    HW124064   0.512   4.330  11.102  0.8986 -0.3614 -1.1257
 7541SOL    HW224065   0.366   4.298  11.083  0.6618 -1.4956  1.9313
 7542SOL     OW24066   3.749   3.672  10.591 -0.1701  0.4638  0.0809
 7542SOL    HW124067   3.814   3.667  10.661 -0.6443  0.6025  0.5334
 7542SOL    HW224068   3.801   3.687  10.511  0.3407  0.7022  0.4538
 7543SOL     OW24069   7.180   0.488   4.868  0.7211 -0.4285 -0.5045
 7543SOL    HW124070   7.253   0.426   4.861  1.0498  0.0960 -2.4573
 7543SOL    HW224071   7.104   0.440   4.835  0.8770 -0.0086 -1.5433
 7544SOL     OW24072   6.736   0.990   4.479  0.4847 -0.0727 -0.3061
 7544SOL    HW124073   6.715   1.059   4.416  0.9102  0.8818  0.5581
 7544SOL    HW224074   6.652   0.946   4.496  0.4381 -0.6116 -1.8115
 7545SOL     OW24075   0.290   1.206   9.637 -0.2686 -0.2096  0.1409
 7545SOL    HW124076   0.277   1.146   9.710 -1.0274  0.2747  0.4134
 7545SOL    HW224077   0.385   1.207   9.624 -0.1015 -0.1427  1.2554
 7546SOL     OW24078   4.320   6.675  11.752 -0.1666  0.0816 -0.1961
 7546SOL    HW124079   4.295   6.604  11.812  3.3426 -1.4109 -0.2881
 7546SOL    HW224080   4.285   6.649  11.667 -1.6564  0.1407  0.3752
 7547SOL     OW24081   1.341   1.207   9.190 -0.5455 -0.0109  0.1857
 7547SOL    HW124082   1.391   1.135   9.230  0.1564 -0.3906 -1.3183
 7547SOL    HW224083   1.401   1.281   9.191 -0.1575 -0.2850 -1.0040
 7548SOL     OW24084   0.113   1.561   2.260  0.0577  0.1902 -0.9094
 7548SOL    HW124085   0.117   1.646   2.217 -0.7365  0.3725 -0.6319
 7548SOL    HW224086   0.068   1.578   2.343  0.1263 -0.4534 -0.7339
 7549SOL     OW24087   3.279   2.326   7.634 -0.2687  0.1240 -0.4069
 7549SOL    HW124088   3.214   2.262   7.664  1.0162 -0.7729  0.5729
 7549SOL    HW224089   3.337   2.338   7.709  1.3498  0.0302 -1.5956
 7550SOL     OW24090   0.485   5.790  11.139 -0.1916 -0.3420 -0.3449
 7550SOL    HW124091   0.544   5.726  11.098  1.4879  0.8669  0.1027
 7550SOL    HW224092   0.494   5.774  11.233 -0.3298  0.0621 -0.2628
 7551SOL     OW24093   4.708   5.831   8.404  0.0878  0.3503 -0.0034
 7551SOL    HW124094   4.714   5.874   8.318 -0.3870 -3.2770 -2.0260
 7551SOL    HW224095   4.766   5.755   8.397 -1.0640 -0.8475  2.3933
 7552SOL     OW24096   4.052   2.554   2.787 -0.5631  0.1697 -0.1650
 7552SOL    HW124097   4.042   2.535   2.880  0.6277 -1.4682 -0.3213
 7552SOL    HW224098   4.141   2.587   2.779 -1.4477  2.7129 -0.4295
 7553SOL     OW24099   2.584   7.504  11.002  0.3804  0.6701  0.4362
 7553SOL    HW124100   2.648   7.436  10.981 -2.1341 -0.9126 -3.1711
 7553SOL    HW224101   2.613   7.539  11.086  3.5940 -2.6958  1.0005
 7554SOL     OW24102   0.201   6.066   6.614 -0.1556  0.1826 -0.1994
 7554SOL    HW124103   0.171   5.998   6.553  1.6973  1.7240 -3.0779
 7554SOL    HW224104   0.146   6.141   6.595  0.6565  0.7790 -0.2664
 7555SOL     OW24105   7.681   5.460   6.645  0.1305  0.3475  0.3970
 7555SOL    HW124106   7.684   5.489   6.554  0.3503 -1.8354 -0.3506
 7555SOL    HW224107   7.658   5.367   6.640  2.0543 -0.3393  2.4187
 7556SOL     OW24108   2.751   2.943   3.021 -0.3324  0.2697 -0.6637
 7556SOL    HW124109   2.782   3.016   2.967  0.8931  1.0792  1.0458
 7556SOL    HW224110   2.831   2.899   3.051 -0.9387  0.1008  0.7973
 7557SOL     OW24111   7.246   6.588   9.701  0.0419  0.3377 -0.1704
 7557SOL    HW124112   7.188   6.588   9.777  1.2591  2.6580  0.8584
 7557SOL    HW224113   7.318   6.530   9.726 -0.5201 -0.4565 -0.3743
 7558SOL     OW24114   0.085   2.603   5.745  0.0298  0.5026 -0.1459
 7558SOL    HW124115   0.170   2.617   5.702  0.3508 -1.1052 -0.0909
 7558SOL    HW224116   0.087   2.663   5.820  0.7088  1.1800 -0.6875
 7559SOL     OW24117   3.961   7.700   6.598  1.2899 -0.0545  0.5915
 7559SOL    HW124118   3.968   7.659   6.511 -0.7031 -1.7809  1.1726
 7559SOL    HW224119   3.930   7.789   6.580 -0.1255 -0.7224 -0.4456
 7560SOL     OW24120   1.227   2.329   2.968  0.0546  0.3464 -0.7924
 7560SOL    HW124121   1.172   2.261   2.930  0.2309  0.1803 -0.7497
 7560SOL    HW224122   1.268   2.372   2.893  0.9915 -0.4700 -0.7712
 7561SOL     OW24123   4.823   0.149   3.426 -0.2293 -0.1168 -0.9934
 7561SOL    HW124124   4.769   0.187   3.357  0.7662  0.7975 -1.2884
 7561SOL    HW224125   4.913   0.170   3.401  0.2276 -0.8871 -0.0791
 7562SOL     OW24126   2.420   0.776   0.834  1.0437 -0.0178  0.2098
 7562SOL    HW124127   2.430   0.738   0.747  0.5924  0.5971 -0.1199
 7562SOL    HW224128   2.473   0.856   0.831  0.4280  0.3918  0.2538
 7563SOL     OW24129   5.450   6.789   1.232  0.2227  0.2798  0.4100
 7563SOL    HW124130   5.533   6.836   1.230  0.2122  0.4010  1.7588
 7563SOL    HW224131   5.471   6.701   1.200  1.0389  0.0920  1.4117
 7564SOL     OW24132   5.170   3.775   2.952  0.0329  0.0799 -0.0661
 7564SOL    HW124133   5.178   3.698   3.008 -1.7973  0.1261  0.2989
 7564SOL    HW224134   5.146   3.740   2.866 -0.8839  0.2477  0.1216
 7565SOL     OW24135   3.997   6.859   9.279  0.1317 -0.4427  0.7819
 7565SOL    HW124136   3.995   6.768   9.251  0.4704 -0.1921 -0.0742
 7565SOL    HW224137   4.086   6.874   9.310  0.6273  0.0866 -0.8028
 7566SOL     OW24138   4.775   7.621   9.388  0.5072 -0.6706 -0.8413
 7566SOL    HW124139   4.727   7.636   9.306  1.6336 -2.0635 -1.8117
 7566SOL    HW224140   4.756   7.530   9.410  0.9612 -0.5827 -0.0463
 7567SOL     OW24141   6.541   4.857   3.681  0.1852 -0.9086  0.3557
 7567SOL    HW124142   6.492   4.937   3.698 -0.6782 -1.5395  0.9160
 7567SOL    HW224143   6.477   4.798   3.641  1.0129 -1.0551 -0.8293
 7568SOL     OW24144   5.138   5.373  11.864  0.6587 -0.3478  0.1332
 7568SOL    HW124145   5.206   5.347  11.803 -0.7152 -1.7830 -0.8688
 7568SOL    HW224146   5.075   5.422  11.812  0.2743 -0.1672  0.7454
 7569SOL     OW24147   3.374   0.140   1.423  0.0124 -0.1751 -0.4172
 7569SOL    HW124148   3.462   0.131   1.460 -0.3366 -1.2103  0.1808
 7569SOL    HW224149   3.335   0.211   1.473  0.0340 -0.6307  0.2568
 7570SOL     OW24150   3.113   7.695   3.077 -0.3740  0.3721  0.4679
 7570SOL    HW124151   3.047   7.764   3.089 -0.2417  0.5417  0.2220
 7570SOL    HW224152   3.155   7.716   2.994  1.0416  1.1306  1.3472
 7571SOL     OW24153   2.128   3.135   3.749  0.0802  0.0487 -0.3404
 7571SOL    HW124154   2.200   3.088   3.707  0.5452  1.0761 -0.7287
 7571SOL    HW224155   2.171   3.189   3.816 -0.3879  0.2546 -0.2017
 7572SOL     OW24156   7.002   3.419  12.043  0.2012  0.2627  0.0178
 7572SOL    HW124157   6.991   3.326  12.062 -1.6309  0.3314 -0.4821
 7572SOL    HW224158   6.949   3.434  11.965  1.3675  1.5225 -0.5885
 7573SOL     OW24159   1.782   0.671   8.046 -0.3651 -0.4651 -0.3141
 7573SOL    HW124160   1.853   0.731   8.027  1.0437 -0.4292  3.9705
 7573SOL    HW224161   1.811   0.587   8.010  1.0026 -0.0552 -0.2106
 7574SOL     OW24162   5.592   4.229   6.341 -0.3219  0.0463 -0.2277
 7574SOL    HW124163   5.497   4.225   6.354  0.0100 -0.5403  2.8519
 7574SOL    HW224164   5.619   4.137   6.331 -0.0136  0.1729 -0.6057
 7575SOL     OW24165   5.431   1.975   4.423 -0.2831  0.3636  0.7354
 7575SOL    HW124166   5.422   2.070   4.426 -2.2635  0.2110  0.5774
 7575SOL    HW224167   5.482   1.959   4.343 -1.1212  1.2364  0.0039
 7576SOL     OW24168   6.294   3.606  10.643 -0.0628 -0.5431 -0.3550
 7576SOL    HW124169   6.382   3.643  10.649 -0.7905  1.2473 -0.0966
 7576SOL    HW224170   6.308   3.511  10.639  1.8770 -0.2845 -0.6383
 7577SOL     OW24171   7.674   7.910   1.259  0.4968  0.0574 -0.5083
 7577SOL    HW124172   7.729   7.970   1.308  2.1578 -1.3422 -0.5806
 7577SOL    HW224173   7.633   7.964   1.191 -0.6555  1.7126  1.4178
 7578SOL     OW24174   6.429   2.052   4.658 -0.0750 -0.1042  0.2183
 7578SOL    HW124175   6.481   1.972   4.663 -1.0400 -0.7599 -0.1935
 7578SOL    HW224176   6.402   2.068   4.749 -0.2807 -0.5018  0.2261
 7579SOL     OW24177   4.352   1.169  11.199  0.0711 -1.2561  0.6051
 7579SOL    HW124178   4.351   1.112  11.123 -0.6394 -2.7892  1.6980
 7579SOL    HW224179   4.374   1.255  11.165 -1.2816 -1.6641 -1.4763
 7580SOL     OW24180   3.289   0.984   4.974 -0.7322  0.5084  0.0446
 7580SOL    HW124181   3.368   0.934   4.952 -0.3310 -0.1258  2.5975
 7580SOL    HW224182   3.228   0.964   4.903  0.4436 -1.2401 -0.5559
 7581SOL     OW24183   4.965   0.352  12.422 -0.5059  0.3920 -0.2319
 7581SOL    HW124184   4.894   0.315  12.370 -1.1922  2.4178 -0.8552
 7581SOL    HW224185   5.042   0.344  12.366 -0.5295 -0.5004 -0.1488
 7582SOL     OW24186   6.617   3.152  11.480 -0.2018  0.1227 -0.0764
 7582SOL    HW124187   6.681   3.082  11.494 -1.9241 -1.1426  2.4683
 7582SOL    HW224188   6.541   3.108  11.443 -0.4489  1.1599 -0.8503
 7583SOL     OW24189   4.335   1.872   9.802 -0.3021  0.2750  0.3731
 7583SOL    HW124190   4.333   1.916   9.887  3.5669  0.2518  0.6629
 7583SOL    HW224191   4.362   1.782   9.822  0.7376  0.2800 -0.8688
 7584SOL     OW24192   4.089   7.770   4.614  0.5237  0.1175  0.8711
 7584SOL    HW124193   4.077   7.786   4.708  2.0515 -0.1394  1.1375
 7584SOL    HW224194   4.092   7.675   4.606 -1.2215  0.0758  0.3077
 7585SOL     OW24195   2.208   3.352   6.035  0.2736  0.6936  0.1295
 7585SOL    HW124196   2.180   3.347   5.944  0.0543 -0.9380  0.2551
 7585SOL    HW224197   2.182   3.268   6.073  0.9971  1.0588  1.5148
 7586SOL     OW24198   4.178   4.499  10.434  0.0994 -0.7668 -0.1252
 7586SOL    HW124199   4.272   4.495  10.418  0.2723  0.3714  0.4800
 7586SOL    HW224200   4.163   4.589  10.464 -1.4896 -0.2654 -2.1458
 7587SOL     OW24201   2.590   2.262   0.755 -0.0653  0.0352 -0.1688
 7587SOL    HW124202   2.676   2.261   0.713  0.7590 -1.8125  1.3921
 7587SOL    HW224203   2.573   2.354   0.772  1.6162  0.4450 -0.5209
 7588SOL     OW24204   2.798   6.710   3.840 -0.3498  0.6985  0.0520
 7588SOL    HW124205   2.839   6.623   3.833  0.0564  1.0211 -2.0976
 7588SOL    HW224206   2.810   6.749   3.754 -2.7285  1.9431  0.2099
 7589SOL     OW24207   3.966   2.635   9.681  0.5077  0.1687 -0.4573
 7589SOL    HW124208   3.898   2.654   9.615  0.6826 -0.6740 -0.9011
 7589SOL    HW224209   3.954   2.702   9.748 -1.1774 -0.3195 -0.2252
 7590SOL     OW24210   1.396   6.448  11.522  0.3520  0.2316 -0.2728
 7590SOL    HW124211   1.485   6.474  11.546  0.5223 -0.9435  0.4186
 7590SOL    HW224212   1.400   6.434  11.428  0.6589  1.0562 -0.3958
 7591SOL     OW24213   0.219   0.014   2.065  0.3769 -0.0760  0.4006
 7591SOL    HW124214   0.166   0.093   2.079 -1.2479 -1.1004  0.3998
 7591SOL    HW224215   0.208  -0.037   2.145  0.8110 -0.6168  0.1268
 7592SOL     OW24216   5.386   4.890  10.638 -0.3085 -0.0372 -0.1259
 7592SOL    HW124217   5.461   4.899  10.579 -1.3198  1.3572 -1.2910
 7592SOL    HW224218   5.406   4.814  10.692  1.2859 -0.5477 -1.3650
 7593SOL     OW24219   1.264   0.184   3.522 -0.0874  0.3119  0.4688
 7593SOL    HW124220   1.170   0.200   3.514 -0.0718 -0.2311 -1.1743
 7593SOL    HW224221   1.271   0.089   3.528  0.3865  0.3178  0.0324
 7594SOL     OW24222   2.377   5.901  12.393  0.1412 -0.1194 -0.1127
 7594SOL    HW124223   2.338   5.900  12.481 -1.4310  2.8485 -0.6564
 7594SOL    HW224224   2.312   5.945  12.338  2.3776  0.9301 -2.0995
 7595SOL     OW24225   2.229   4.518   8.592 -0.1422 -0.7497 -0.0840
 7595SOL    HW124226   2.212   4.511   8.498  1.5450  0.2671 -0.4992
 7595SOL    HW224227   2.279   4.439   8.613 -0.3746 -0.8927 -0.0571
 7596SOL     OW24228   2.269   0.217  11.371 -0.1240 -0.0403  0.0165
 7596SOL    HW124229   2.351   0.205  11.418 -0.7105 -0.5613  0.9170
 7596SOL    HW224230   2.260   0.139  11.316 -0.1203 -0.0713  0.0609
 7597SOL     OW24231   6.213   7.214   2.024  0.2280  0.1795 -0.2196
 7597SOL    HW124232   6.120   7.201   2.044  0.2264  0.8563  0.2285
 7597SOL    HW224233   6.258   7.151   2.081  0.1835  1.6436  1.5319
 7598SOL     OW24234   1.962   6.521   0.722 -0.1220  0.0091  0.3766
 7598SOL    HW124235   1.942   6.565   0.805  4.8028  1.8127  0.9790
 7598SOL    HW224236   1.981   6.430   0.747  0.8199  0.4155  1.2140
 7599SOL     OW24237   3.859   3.904   4.186  0.5109  0.0686  0.2925
 7599SOL    HW124238   3.939   3.892   4.135  1.1996 -1.9329  1.7339
 7599SOL    HW224239   3.888   3.899   4.277 -0.8080  2.6028  0.9532
 7600SOL     OW24240   7.535   0.591  10.344 -0.2251 -0.1488 -0.4645
 7600SOL    HW124241   7.605   0.627  10.290 -1.0655  2.4605  0.0686
 7600SOL    HW224242   7.580   0.548  10.416  0.8433  0.9189 -0.4691
 7601SOL     OW24243   2.794   1.756   5.925  0.3332 -0.2890 -0.2457
 7601SOL    HW124244   2.833   1.685   5.874  1.0052 -0.2435  0.2036
 7601SOL    HW224245   2.814   1.736   6.016 -0.3331 -0.0405 -0.0328
 7602SOL     OW24246   4.308   0.413  11.961  0.2261  0.3210 -0.5105
 7602SOL    HW124247   4.292   0.486  12.022  0.7513  0.8400 -0.9884
 7602SOL    HW224248   4.250   0.343  11.993  0.0004  0.8087  0.1864
 7603SOL     OW24249   4.228   2.358   8.273  0.1215  0.3564 -0.1856
 7603SOL    HW124250   4.224   2.453   8.285  0.3889  0.3063  0.3237
 7603SOL    HW224251   4.198   2.322   8.357  0.4381 -0.0051 -0.2246
 7604SOL     OW24252   7.799   2.628   6.762 -0.0277 -0.0726 -0.3283
 7604SOL    HW124253   7.709   2.629   6.729 -0.3714 -0.0184  0.5635
 7604SOL    HW224254   7.814   2.537   6.787  0.0094  0.0032 -0.0733
 7605SOL     OW24255   0.378   2.647   5.656 -0.1329  0.3587  0.1101
 7605SOL    HW124256   0.440   2.633   5.727 -0.4214 -0.8112  0.1511
 7605SOL    HW224257   0.412   2.594   5.584 -0.9949 -0.1838  0.0904
 7606SOL     OW24258   6.053   7.248   8.889 -0.4793  0.1289 -0.0746
 7606SOL    HW124259   6.013   7.325   8.848  2.0026  1.3512 -0.3517
 7606SOL    HW224260   6.058   7.270   8.982 -2.0759 -0.8273  0.2876
 7607SOL     OW24261   2.049   4.721   7.620  0.3669  0.0389 -0.0855
 7607SOL    HW124262   1.979   4.665   7.587 -1.2218  2.0488 -0.3616
 7607SOL    HW224263   2.066   4.690   7.708 -1.7875  0.2376  0.4582
 7608SOL     OW24264   5.076   1.445   6.109 -0.5361 -0.2354  0.2068
 7608SOL    HW124265   5.010   1.481   6.169 -0.3659  0.3511  0.0466
 7608SOL    HW224266   5.156   1.492   6.131  0.1289 -1.7634  1.1924
 7609SOL     OW24267   0.289   1.899  12.376  0.0257  0.6022 -0.0245
 7609SOL    HW124268   0.268   1.928  12.287  0.0474 -0.9993 -0.5803
 7609SOL    HW224269   0.329   1.813  12.365  1.1762  0.9062  1.4701
 7610SOL     OW24270   3.897   0.444   6.040  0.6300  0.5421  0.2497
 7610SOL    HW124271   3.878   0.374   5.977 -0.4344  0.0081  1.1260
 7610SOL    HW224272   3.845   0.518   6.009  1.2117  0.7409 -0.2808
 7611SOL     OW24273   5.751   6.570  10.456  0.1887  0.2817 -0.1902
 7611SOL    HW124274   5.739   6.534  10.368 -0.9074  0.3539 -0.0777
 7611SOL    HW224275   5.709   6.656  10.453  0.0210  0.2221  0.4451
 7612SOL     OW24276   6.665   4.042   3.724 -0.5315  0.2170  0.1956
 7612SOL    HW124277   6.667   4.041   3.820 -0.4670  1.7008  0.2231
 7612SOL    HW224278   6.575   4.067   3.702 -0.7217 -0.7233 -0.1608
 7613SOL     OW24279   4.903   1.785   0.984 -0.4268  0.2210 -0.6044
 7613SOL    HW124280   4.912   1.756   1.074  1.0155 -2.8633 -1.6026
 7613SOL    HW224281   4.838   1.727   0.946 -0.7335  1.2207 -1.6785
 7614SOL     OW24282   3.424   2.398   9.907  0.0727  0.0789 -0.6354
 7614SOL    HW124283   3.354   2.377   9.845  0.5105  2.0451 -1.8910
 7614SOL    HW224284   3.412   2.491   9.925  1.9884  0.3055 -0.3801
 7615SOL     OW24285   7.897   5.617   0.311  0.4929  0.3924 -0.3033
 7615SOL    HW124286   7.951   5.646   0.238 -1.4841  1.6721 -1.3630
 7615SOL    HW224287   7.905   5.686   0.377  0.8522  0.1310 -0.0692
 7616SOL     OW24288   5.377   6.472   4.972  0.0009 -0.7402  0.1192
 7616SOL    HW124289   5.311   6.499   4.909  0.1771  1.4796  0.8054
 7616SOL    HW224290   5.328   6.457   5.053  0.3252  1.4389  0.7761
 7617SOL     OW24291   2.642   7.484   0.666 -0.1064 -0.0853 -0.1760
 7617SOL    HW124292   2.723   7.534   0.654 -1.1388  1.6390 -0.1538
 7617SOL    HW224293   2.587   7.509   0.592 -0.9032 -0.6867  0.2012
 7618SOL     OW24294   2.680   0.036   6.902  0.2402  0.1917  0.0232
 7618SOL    HW124295   2.722  -0.049   6.889 -1.7285 -0.8090 -0.2411
 7618SOL    HW224296   2.752   0.098   6.913  1.7410 -1.3650 -0.6816
 7619SOL     OW24297   2.080   7.756  11.215 -0.0620  0.2615  0.4106
 7619SOL    HW124298   2.071   7.719  11.303 -0.8928 -0.2877  0.1058
 7619SOL    HW224299   2.006   7.720  11.166  0.0353  1.0580 -0.3473
 7620SOL     OW24300   5.758   0.095   7.427 -0.2628 -0.0769 -0.3996
 7620SOL    HW124301   5.790   0.113   7.339 -0.0227 -0.2143 -0.3406
 7620SOL    HW224302   5.797   0.011   7.449 -0.0767  0.1037 -0.0407
 7621SOL     OW24303   3.193   0.131   6.419 -0.2167 -0.3888 -0.0377
 7621SOL    HW124304   3.120   0.084   6.379 -0.7796  0.0224  0.4821
 7621SOL    HW224305   3.211   0.203   6.359  0.8220 -1.3893 -0.9702
 7622SOL     OW24306   0.922   3.912   8.564 -0.3904 -0.2657 -0.2152
 7622SOL    HW124307   0.951   3.866   8.485 -1.2450 -1.6986  0.2803
 7622SOL    HW224308   1.003   3.936   8.609  0.0872 -0.1502 -1.1069
 7623SOL     OW24309   3.897   4.714   0.558  0.8441  0.3692  0.1206
 7623SOL    HW124310   3.862   4.634   0.519  1.1154  0.1503  0.3250
 7623SOL    HW224311   3.992   4.704   0.551  0.8692  0.9529 -0.4180
 7624SOL     OW24312   7.720   5.746   4.089  0.1629  1.1869 -0.2655
 7624SOL    HW124313   7.693   5.765   4.179  1.9049 -1.7577  1.0342
 7624SOL    HW224314   7.661   5.676   4.061  2.1180 -0.8004  0.2422
 7625SOL     OW24315   2.856   3.669   4.551 -0.1150  0.2056  0.0146
 7625SOL    HW124316   2.802   3.590   4.545  0.6831 -0.3320 -0.3515
 7625SOL    HW224317   2.860   3.689   4.644  1.1928 -1.2886  0.3265
 7626SOL     OW24318   3.357   3.407   4.118 -0.4958 -0.0823  0.0432
 7626SOL    HW124319   3.409   3.329   4.138  0.9794  1.0105  0.6300
 7626SOL    HW224320   3.327   3.393   4.028  3.8910  0.7857 -1.8054
 7627SOL     OW24321   1.380   6.335   9.761 -0.2151 -0.0679 -0.1907
 7627SOL    HW124322   1.294   6.313   9.727 -0.3149  0.2666 -0.1653
 7627SOL    HW224323   1.442   6.304   9.695 -0.3792  0.0807 -0.4123
 7628SOL     OW24324   2.044   4.343   1.890  0.5111 -0.3087 -0.1681
 7628SOL    HW124325   1.995   4.261   1.887 -0.2664  0.1772 -1.8018
 7628SOL    HW224326   2.095   4.344   1.810  0.6543  0.7050 -0.0826
 7629SOL     OW24327   7.385   4.672   7.140  0.3320  0.1702 -0.2839
 7629SOL    HW124328   7.316   4.704   7.082  0.2724  2.1766  0.8179
 7629SOL    HW224329   7.342   4.609   7.197  0.1595 -1.0237 -1.6588
 7630SOL     OW24330   7.054   6.836   5.228  0.4958 -0.4985 -0.2155
 7630SOL    HW124331   7.128   6.848   5.168  1.8488  2.7592  1.8170
 7630SOL    HW224332   6.977   6.856   5.175  1.1957 -1.6889 -1.7969
 7631SOL     OW24333   2.425   6.285   5.633 -0.1638 -0.1861  0.6348
 7631SOL    HW124334   2.495   6.294   5.569  0.1255  1.6468  1.1452
 7631SOL    HW224335   2.351   6.249   5.584  0.9557 -1.7623  0.0008
 7632SOL     OW24336   3.162   1.491  10.921 -0.2139 -0.0054 -0.1890
 7632SOL    HW124337   3.136   1.522  10.834  0.1002 -1.3894 -0.7986
 7632SOL    HW224338   3.094   1.429  10.946 -0.3667  0.4758  0.6199
 7633SOL     OW24339   1.168   5.707   3.300  0.5057 -0.2959  0.1294
 7633SOL    HW124340   1.166   5.626   3.249  0.0658  0.0920 -0.4908
 7633SOL    HW224341   1.179   5.678   3.390 -2.2039 -1.2314  0.2656
 7634SOL     OW24342   1.458   2.000  11.527 -0.6904  0.1687 -0.9881
 7634SOL    HW124343   1.516   2.049  11.586 -1.2345  1.2044 -1.3129
 7634SOL    HW224344   1.487   2.024  11.439 -0.8084 -0.2767 -1.1518
 7635SOL     OW24345   4.542   1.072   9.617  0.4086 -0.2754 -0.3921
 7635SOL    HW124346   4.624   1.121   9.618  0.5295 -0.4851  0.2231
 7635SOL    HW224347   4.496   1.104   9.539  1.6248 -1.0983 -1.4828
 7636SOL     OW24348   0.245   3.036   0.110  0.3544  0.0184  0.4166
 7636SOL    HW124349   0.258   3.121   0.068  0.3467  0.4273  1.2265
 7636SOL    HW224350   0.150   3.022   0.107  0.4853 -0.8726 -1.4277
 7637SOL     OW24351   4.958   0.320   0.868 -0.0189 -0.3956  0.2877
 7637SOL    HW124352   4.908   0.339   0.789  1.8061  1.5433 -0.4905
 7637SOL    HW224353   4.895   0.331   0.940 -0.8203  1.6368 -0.6593
 7638SOL     OW24354   3.986   5.944   4.105 -0.5824 -0.0459 -0.0272
 7638SOL    HW124355   4.058   5.883   4.125 -2.0368 -2.6254 -2.0561
 7638SOL    HW224356   3.994   5.960   4.011 -1.4946  1.2641  0.0992
 7639SOL     OW24357   2.963   7.525  11.360 -0.0103  0.1937  0.0651
 7639SOL    HW124358   2.896   7.578  11.403  0.2562 -0.4759  1.3434
 7639SOL    HW224359   2.918   7.445  11.333  0.0686  0.1439  0.0804
 7640SOL     OW24360   3.869   4.137   3.538  0.8881  0.5043  0.2255
 7640SOL    HW124361   3.869   4.232   3.530 -0.7380  0.5325  0.0977
 7640SOL    HW224362   3.806   4.119   3.608  1.3914 -0.4719  0.4420
 7641SOL     OW24363   4.576   2.722   2.097  0.5108 -0.4712 -0.1710
 7641SOL    HW124364   4.669   2.697   2.091  1.0048  1.5577 -2.0930
 7641SOL    HW224365   4.532   2.670   2.030  0.1372 -1.6391  0.9239
 7642SOL     OW24366   5.090   0.422   0.429  0.1259 -0.3408 -0.1380
 7642SOL    HW124367   5.184   0.412   0.445  0.0747 -1.6698 -0.5358
 7642SOL    HW224368   5.070   0.358   0.361 -1.0551  0.0019 -0.1429
 7643SOL     OW24369   6.537   4.915   1.999  0.5081  0.0024 -0.0768
 7643SOL    HW124370   6.598   4.987   2.015  1.7938 -0.6190 -1.8611
 7643SOL    HW224371   6.515   4.882   2.086  2.7676  0.2377  0.6441
 7644SOL     OW24372   2.103   1.565   2.228  0.1465 -0.5746  0.6971
 7644SOL    HW124373   2.162   1.641   2.233 -1.4517  0.7452  0.3880
 7644SOL    HW224374   2.149   1.496   2.275  2.8263 -0.2337 -1.1803
 7645SOL     OW24375   1.378   1.924   6.073 -0.4592 -0.2820  0.5364
 7645SOL    HW124376   1.289   1.896   6.096 -0.7775 -0.3974 -0.7433
 7645SOL    HW224377   1.419   1.845   6.038 -1.2910  0.6174 -2.9034
 7646SOL     OW24378   0.287   0.487   4.295 -0.2728  0.5049  0.0812
 7646SOL    HW124379   0.360   0.543   4.268 -0.1126  1.5405  2.3914
 7646SOL    HW224380   0.209   0.538   4.271 -0.1301  1.6276  1.8246
 7647SOL     OW24381   1.148   5.001   6.990 -0.3937  0.6969 -0.3791
 7647SOL    HW124382   1.127   5.061   7.062 -0.1116  1.4273 -0.8964
 7647SOL    HW224383   1.234   5.030   6.959  0.8490 -1.3893  0.8354
 7648SOL     OW24384   4.801   2.000   5.950  0.1115 -0.3631 -0.3295
 7648SOL    HW124385   4.809   2.016   5.856 -1.5070 -0.3046 -0.4882
 7648SOL    HW224386   4.760   2.080   5.984  0.0217 -0.6785  0.3145
 7649SOL     OW24387   6.715   7.764   4.330 -0.3239 -0.3631  0.1291
 7649SOL    HW124388   6.802   7.801   4.315 -1.1974  1.2930 -1.3936
 7649SOL    HW224389   6.731   7.681   4.375  2.0872 -0.5621 -0.9276
 7650SOL     OW24390   6.067   1.226  10.284  0.2891  0.1040 -0.3241
 7650SOL    HW124391   6.122   1.282  10.339 -1.9502  2.5719 -0.3879
 7650SOL    HW224392   5.992   1.281  10.262 -1.3432 -2.4893 -1.6997
 7651SOL     OW24393   5.945   6.853   0.836  0.3061 -0.1502  0.7152
 7651SOL    HW124394   6.028   6.898   0.825  0.3169 -0.4446 -0.6272
 7651SOL    HW224395   5.885   6.896   0.774  0.1406 -1.4947 -0.1044
 7652SOL     OW24396   7.246   6.631   8.450  0.4568  0.5161  0.3330
 7652SOL    HW124397   7.341   6.644   8.443  0.5114 -0.7288 -1.8892
 7652SOL    HW224398   7.210   6.675   8.373 -0.9418  2.0299  1.7818
 7653SOL     OW24399   3.990   5.443   9.655  0.0292  0.1077  0.1241
 7653SOL    HW124400   3.913   5.438   9.712  0.4725 -2.1503  0.6494
 7653SOL    HW224401   4.009   5.351   9.634  2.7066  0.5864  0.1969
 7654SOL     OW24402   1.187   3.223   4.628 -0.3822 -0.2425  0.1102
 7654SOL    HW124403   1.143   3.210   4.712 -1.0103  0.1076 -0.1587
 7654SOL    HW224404   1.194   3.318   4.619 -1.3030 -0.2362 -0.7274
 7655SOL     OW24405   3.176   3.076   2.798 -0.0496  0.2428  0.0933
 7655SOL    HW124406   3.245   3.142   2.803 -0.7837  1.0672 -0.2013
 7655SOL    HW224407   3.198   3.012   2.866  1.0240  0.4578 -0.0439
 7656SOL     OW24408   4.768   7.318  11.432  0.0335  0.6677  0.4346
 7656SOL    HW124409   4.774   7.406  11.394 -1.7953  0.5806 -0.1663
 7656SOL    HW224410   4.817   7.324  11.514  0.5643  2.0329  0.0460
 7657SOL     OW24411   5.481   7.045   8.540  0.6829 -0.3749 -0.2594
 7657SOL    HW124412   5.456   7.076   8.626  0.1120 -1.1861 -0.1166
 7657SOL    HW224413   5.571   7.014   8.550  0.4828 -0.8329  0.1497
 7658SOL     OW24414   6.959   5.962   1.831  0.1565 -0.1137  0.4160
 7658SOL    HW124415   6.930   5.878   1.868 -0.7735  0.1390  0.2851
 7658SOL    HW224416   6.880   6.017   1.833  0.4301  0.3424 -0.6970
 7659SOL     OW24417   1.139   7.237   6.661 -0.0319  0.3225 -1.0235
 7659SOL    HW124418   1.202   7.286   6.608  1.7660 -1.9340 -1.1324
 7659SOL    HW224419   1.165   7.253   6.751 -0.3581  0.7027 -0.9949
 7660SOL     OW24420   6.696   0.138   4.449  0.2011 -0.1924 -0.2442
 7660SOL    HW124421   6.639   0.064   4.469 -0.3872  0.1509 -0.6370
 7660SOL    HW224422   6.784   0.106   4.468 -0.1585 -0.5471  0.8687
 7661SOL     OW24423   4.697   6.280   2.105 -0.4013 -0.3413 -0.0285
 7661SOL    HW124424   4.757   6.228   2.157 -0.1564 -0.0689 -0.0354
 7661SOL    HW224425   4.731   6.276   2.015  0.1640  0.5956  0.1271
 7662SOL     OW24426   7.059   3.622  11.181 -0.1201  0.4490  0.2092
 7662SOL    HW124427   7.111   3.593  11.106 -0.3222  1.1489 -0.2179
 7662SOL    HW224428   6.972   3.636  11.145 -0.5947 -0.6225  0.8980
 7663SOL     OW24429   3.068   6.884   7.990 -0.1753 -0.0233  0.1826
 7663SOL    HW124430   3.061   6.977   8.012  1.8449 -0.3920  2.9043
 7663SOL    HW224431   3.095   6.842   8.072 -2.7559 -3.3394 -0.4394
 7664SOL     OW24432   2.214   3.153   5.539  0.3845 -0.5465 -0.2613
 7664SOL    HW124433   2.298   3.193   5.518 -0.5375  1.2217 -0.7946
 7664SOL    HW224434   2.154   3.187   5.473 -0.6743 -2.1707 -0.2068
 7665SOL     OW24435   2.007   5.293   7.907 -0.2687 -0.6477  0.1548
 7665SOL    HW124436   1.936   5.297   7.972 -1.0480 -0.1030 -0.7129
 7665SOL    HW224437   1.974   5.236   7.838  0.8098 -1.7438  0.5067
 7666SOL     OW24438   7.334   0.811   0.019 -0.0576  0.0079 -0.5588
 7666SOL    HW124439   7.283   0.800  -0.061  1.7763  0.4696 -1.8727
 7666SOL    HW224440   7.402   0.875  -0.005 -0.0329  0.9234  1.6667
 7667SOL     OW24441   7.235   1.546  10.795 -0.4192 -0.3984 -0.4614
 7667SOL    HW124442   7.311   1.491  10.813 -0.7809 -1.4075 -1.8334
 7667SOL    HW224443   7.218   1.591  10.878  2.8972  1.5012 -0.6395
 7668SOL     OW24444   4.853   0.358   6.900  0.2850  0.3821  0.0383
 7668SOL    HW124445   4.790   0.333   6.968 -0.7398  2.1557 -0.1786
 7668SOL    HW224446   4.939   0.347   6.941 -0.1340 -1.7115  0.4788
 7669SOL     OW24447   5.828   2.268   3.785 -0.3560 -0.3493 -0.0704
 7669SOL    HW124448   5.748   2.320   3.777  0.3137  0.7630  0.1688
 7669SOL    HW224449   5.825   2.208   3.711 -0.8386  0.4885 -0.7453
 7670SOL     OW24450   6.119   2.879   8.230  0.5950  0.6830 -0.0690
 7670SOL    HW124451   6.151   2.836   8.310 -0.1038  1.1818  0.4855
 7670SOL    HW224452   6.028   2.852   8.223  1.3416 -1.7498 -2.3369
 7671SOL     OW24453   4.802   1.627  11.076  0.2317  0.2356 -0.2031
 7671SOL    HW124454   4.894   1.643  11.057  0.4863  0.1378  0.8740
 7671SOL    HW224455   4.755   1.686  11.018  1.0172  1.3203  0.2274
 7672SOL     OW24456   7.753   5.538   1.983 -0.0695 -0.1635 -0.3238
 7672SOL    HW124457   7.696   5.587   1.923  1.2633 -0.1030 -1.5851
 7672SOL    HW224458   7.823   5.599   2.004 -0.4081 -0.2565  1.1799
 7673SOL     OW24459   7.169   4.873  10.665  0.5725  0.3785 -0.0970
 7673SOL    HW124460   7.222   4.912  10.596  0.2306  0.9756 -0.0354
 7673SOL    HW224461   7.114   4.809  10.620 -0.4211  1.5264 -0.5793
 7674SOL     OW24462   2.450   7.678   2.514 -0.4957  0.2236  0.2450
 7674SOL    HW124463   2.476   7.596   2.472  0.8723 -0.0828  1.6157
 7674SOL    HW224464   2.357   7.688   2.492 -0.6011 -1.5143 -0.2246
 7675SOL     OW24465   6.385   3.873  11.543  1.2547 -0.2728  0.3179
 7675SOL    HW124466   6.409   3.944  11.603 -0.3820  0.7303 -0.1677
 7675SOL    HW224467   6.469   3.838  11.514  2.1294  1.6096  0.4024
 7676SOL     OW24468   4.087   4.632   1.753  0.1658  0.0487  0.1518
 7676SOL    HW124469   4.114   4.658   1.841  1.0020 -2.0704  0.5938
 7676SOL    HW224470   3.992   4.632   1.755  0.1800 -0.4572  1.2425
 7677SOL     OW24471   1.393   3.665   1.957  0.0537 -0.6195 -0.2526
 7677SOL    HW124472   1.385   3.598   2.026 -1.1259  0.4725  0.7359
 7677SOL    HW224473   1.482   3.698   1.965  0.0598 -0.7967  0.5030
 7678SOL     OW24474   0.990   5.145  11.072 -0.4078 -0.2063 -0.0461
 7678SOL    HW124475   1.081   5.117  11.074 -0.1558  0.4507  3.6669
 7678SOL    HW224476   0.994   5.239  11.059 -0.5173 -0.1087  0.6089
 7679SOL     OW24477   7.625   0.359   6.232 -0.0480  0.1958  0.0155
 7679SOL    HW124478   7.563   0.294   6.197  0.5009 -1.0325  1.2219
 7679SOL    HW224479   7.580   0.443   6.223 -1.4710 -0.5523 -0.0626
 7680SOL     OW24480   1.156   4.848   8.869  0.2279 -0.6770 -0.0562
 7680SOL    HW124481   1.225   4.895   8.915 -0.3553  0.4420 -0.2775
 7680SOL    HW224482   1.164   4.877   8.778  0.4212 -1.7045 -0.3699
 7681SOL     OW24483   1.788   4.613   0.883 -0.3444  0.1761 -0.4752
 7681SOL    HW124484   1.756   4.695   0.845  0.9036 -0.4040 -3.0311
 7681SOL    HW224485   1.713   4.554   0.880 -0.6628  0.5896 -0.7359
 7682SOL     OW24486   1.980   4.492   7.236 -0.3115 -0.2831 -0.5896
 7682SOL    HW124487   1.933   4.420   7.195  0.6179 -0.7486 -0.8619
 7682SOL    HW224488   1.934   4.507   7.319 -1.1475 -0.4812 -1.0117
 7683SOL     OW24489   1.451   0.113  12.234 -0.3254  0.1722  0.0667
 7683SOL    HW124490   1.467   0.027  12.196  0.7564  0.5189 -0.2772
 7683SOL    HW224491   1.355   0.119  12.241 -0.4131 -0.9603 -0.1068
 7684SOL     OW24492   7.409   3.814   8.312  0.0307 -0.3496 -0.3428
 7684SOL    HW124493   7.324   3.850   8.339 -0.1086 -1.2031  0.4120
 7684SOL    HW224494   7.394   3.784   8.222 -0.6747 -1.0989  0.0095
 7685SOL     OW24495   0.955   2.819   8.450  0.3099  0.2359 -0.1084
 7685SOL    HW124496   0.994   2.799   8.365  0.6641 -0.9779  0.3190
 7685SOL    HW224497   0.863   2.837   8.430  0.7610  1.7807 -0.9551
 7686SOL     OW24498   1.352   5.054   1.733 -0.4382 -0.3150 -0.8490
 7686SOL    HW124499   1.388   4.980   1.783  0.0000 -0.4381 -1.3379
 7686SOL    HW224500   1.259   5.035   1.727 -0.7517  0.3802  1.0772
 7687SOL     OW24501   4.196   3.264   2.044 -0.2220 -0.0076 -0.5362
 7687SOL    HW124502   4.218   3.199   2.111 -1.0798  1.1447  0.9522
 7687SOL    HW224503   4.100   3.267   2.044 -0.2085  1.2550 -0.5277
 7688SOL     OW24504   0.619   6.377   2.035 -0.4741  0.0539 -0.0980
 7688SOL    HW124505   0.707   6.349   2.009 -0.3877  0.2320  0.0006
 7688SOL    HW224506   0.569   6.295   2.041  0.1914 -0.2750  1.8118
 7689SOL     OW24507   6.965   2.106   8.427 -0.0972 -0.1349  0.7058
 7689SOL    HW124508   7.046   2.111   8.477 -1.0937 -1.6203  2.5904
 7689SOL    HW224509   6.896   2.117   8.492 -1.4683  1.7421 -0.9314
 7690SOL     OW24510   1.536   5.544   8.336  0.5413  0.2594 -0.2842
 7690SOL    HW124511   1.579   5.601   8.272 -0.6728  0.0424 -1.3410
 7690SOL    HW224512   1.452   5.587   8.353 -0.0313 -0.7475 -0.4484
 7691SOL     OW24513   6.687   3.057   7.131  0.1488 -0.1782  0.3454
 7691SOL    HW124514   6.712   3.147   7.153  0.2805  0.3555 -1.7927
 7691SOL    HW224515   6.749   3.003   7.179 -0.5532  0.7837  2.4867
 7692SOL     OW24516   4.347   7.482   6.103 -0.0371 -0.0803  0.1027
 7692SOL    HW124517   4.421   7.501   6.161 -0.5300 -1.0202  1.0794
 7692SOL    HW224518   4.372   7.399   6.061 -0.2298 -0.0426 -0.0818
 7693SOL     OW24519   4.132   0.540  11.638 -0.2580 -0.1871  0.0428
 7693SOL    HW124520   4.092   0.598  11.703 -1.2001 -1.2409  0.4284
 7693SOL    HW224521   4.150   0.598  11.564 -0.0235  0.8457  0.8750
 7694SOL     OW24522   5.324   4.199   7.458  0.1564 -0.0247  0.5159
 7694SOL    HW124523   5.239   4.231   7.428 -0.3725 -0.6029  1.3732
 7694SOL    HW224524   5.320   4.206   7.553  1.6941  1.4820  0.5185
 7695SOL     OW24525   0.562   7.502   2.184 -0.2617  0.3330  0.1749
 7695SOL    HW124526   0.514   7.420   2.195 -0.2214  0.2323 -0.3468
 7695SOL    HW224527   0.646   7.487   2.228 -0.5913  0.4018  0.8248
 7696SOL     OW24528   2.308   7.394   1.187 -0.2239  0.3438 -0.0219
 7696SOL    HW124529   2.237   7.430   1.134  0.4759  1.3216 -0.3171
 7696SOL    HW224530   2.377   7.461   1.183  0.9714 -0.8620 -0.2843
 7697SOL     OW24531   3.902   1.859  10.245 -0.7800 -0.2441 -0.0642
 7697SOL    HW124532   3.855   1.938  10.272  0.5117  0.8166 -0.7646
 7697SOL    HW224533   3.840   1.788  10.257 -2.1867  0.9653  0.0331
 7698SOL     OW24534   1.503   4.372   0.548 -0.7530  0.1777 -0.1276
 7698SOL    HW124535   1.481   4.455   0.505 -1.2997 -0.1337 -0.4673
 7698SOL    HW224536   1.419   4.342   0.584 -0.6838 -0.5140 -0.5262
 7699SOL     OW24537   0.648   6.484  11.839 -0.1365 -0.4509 -0.0950
 7699SOL    HW124538   0.622   6.572  11.868 -2.2167  0.1214 -3.1725
 7699SOL    HW224539   0.571   6.430  11.855  0.6381 -1.4277  0.4665
 7700SOL     OW24540   4.616   1.973   4.406  0.2209 -0.9663 -0.9577
 7700SOL    HW124541   4.531   2.015   4.398 -0.4491 -2.2837 -0.9499
 7700SOL    HW224542   4.678   2.039   4.375 -0.7316  0.2024 -0.4552
 7701SOL     OW24543   3.540   7.059   2.691  0.0964  0.1351 -0.0127
 7701SOL    HW124544   3.583   7.011   2.620 -2.8159  1.6077 -3.0430
 7701SOL    HW224545   3.602   7.129   2.713  2.0028 -1.6533  0.6124
 7702SOL     OW24546   1.945   1.609   1.968  0.2908 -0.1444 -0.1566
 7702SOL    HW124547   1.998   1.609   2.047  0.2352  0.1633 -0.1173
 7702SOL    HW224548   1.887   1.684   1.978  1.7937  1.2906 -1.4924
 7703SOL     OW24549   1.060   1.573   6.617 -0.0642  0.1165  0.3580
 7703SOL    HW124550   1.068   1.663   6.648 -0.9276  0.2444  0.2163
 7703SOL    HW224551   1.036   1.522   6.695 -2.5406  0.4855 -0.0970
 7704SOL     OW24552   3.657   5.336   6.873  0.2732  0.1165 -0.3295
 7704SOL    HW124553   3.741   5.292   6.887 -0.8572 -1.8140  0.8235
 7704SOL    HW224554   3.649   5.397   6.946  0.6740  0.3328 -0.4629
 7705SOL     OW24555   7.118   0.200   1.682  0.0832  0.4086 -0.3447
 7705SOL    HW124556   7.035   0.211   1.729  0.1735 -0.3605  0.0088
 7705SOL    HW224557   7.185   0.229   1.745  0.2507 -1.1758  0.2547
 7706SOL     OW24558   7.815   2.118   7.434 -0.3380  0.0174 -0.4973
 7706SOL    HW124559   7.745   2.103   7.498  1.2911  0.0846  1.4117
 7706SOL    HW224560   7.840   2.031   7.404 -0.6758 -0.0644 -0.5394
 7707SOL     OW24561   5.198   5.358  10.904  0.4199  0.4623  0.0686
 7707SOL    HW124562   5.214   5.394  10.817 -1.2849  2.8504  0.6444
 7707SOL    HW224563   5.282   5.366  10.949  1.0566  0.1199 -1.0094
 7708SOL     OW24564   5.611   7.570  12.214  0.1518 -0.2800  0.1991
 7708SOL    HW124565   5.671   7.536  12.148  0.5344  0.1838  0.2983
 7708SOL    HW224566   5.610   7.664  12.199 -1.0750 -0.3444 -0.2226
 7709SOL     OW24567   3.410   4.132  12.097  0.2971 -0.1524 -0.2834
 7709SOL    HW124568   3.324   4.092  12.113  0.2219 -0.1929 -0.7951
 7709SOL    HW224569   3.425   4.121  12.004  0.3601  0.8377 -0.4011
 7710SOL     OW24570   6.845   4.153   1.505  0.0337  0.4748  0.1610
 7710SOL    HW124571   6.855   4.203   1.587  1.8222  0.6776 -0.1565
 7710SOL    HW224572   6.894   4.204   1.440  1.4291 -1.3715 -0.2981
 7711SOL     OW24573   4.994   6.311  11.046 -0.2535  0.2696  0.2355
 7711SOL    HW124574   4.966   6.385  11.101  0.6828  0.4933  0.4376
 7711SOL    HW224575   5.052   6.260  11.103  1.5548  1.0565 -0.8181
 7712SOL     OW24576   7.289   3.593   3.746 -0.6980  0.3386 -0.0711
 7712SOL    HW124577   7.342   3.523   3.707  1.2085  0.7691  1.5910
 7712SOL    HW224578   7.213   3.548   3.782 -0.1219 -0.7227 -0.1231
 7713SOL     OW24579   1.332   5.248   2.861  0.2618 -0.1549  0.2134
 7713SOL    HW124580   1.407   5.194   2.884 -0.6548 -0.8727  1.6657
 7713SOL    HW224581   1.355   5.336   2.890  0.4713 -0.4122  0.8262
 7714SOL     OW24582   4.672   2.550   5.312  0.1086 -0.0713 -0.1124
 7714SOL    HW124583   4.731   2.476   5.300 -0.6500 -0.9667  1.3736
 7714SOL    HW224584   4.666   2.561   5.407  0.9796  2.5669 -0.2951
 7715SOL     OW24585   2.364   0.576  12.267  0.0501 -0.0172 -0.0385
 7715SOL    HW124586   2.270   0.589  12.278  0.2897  1.7831  0.0982
 7715SOL    HW224587   2.370   0.505  12.202 -1.3901  0.1895 -0.4411
 7716SOL     OW24588   2.728   1.099  10.440 -0.2822 -0.3496  0.1677
 7716SOL    HW124589   2.677   1.116  10.519 -2.6354 -0.2392 -1.2570
 7716SOL    HW224590   2.734   1.004  10.435 -0.4505 -0.3683  0.3152
 7717SOL     OW24591   5.930   7.628   5.237 -0.5105  0.1247  0.1510
 7717SOL    HW124592   5.957   7.678   5.314 -1.3976  1.4262 -0.3522
 7717SOL    HW224593   6.002   7.640   5.175 -1.0424  1.4244 -0.2402
 7718SOL     OW24594   1.354   6.778   7.477 -0.3211 -0.5544  0.0542
 7718SOL    HW124595   1.364   6.747   7.567 -0.6244  0.3242  0.4037
 7718SOL    HW224596   1.261   6.767   7.458 -0.7025  1.2744  0.6435
 7719SOL     OW24597   1.320   2.733  10.912  0.0956  0.6259  0.4567
 7719SOL    HW124598   1.292   2.680  10.986  0.7289  0.5786  0.6681
 7719SOL    HW224599   1.406   2.697  10.888 -0.0633  0.6980 -0.2413
 7720SOL     OW24600   0.835   1.673   2.829  0.3195  0.9216 -0.1892
 7720SOL    HW124601   0.776   1.604   2.798  0.9245  0.1475  0.3336
 7720SOL    HW224602   0.876   1.636   2.907  0.9679  1.7169 -0.1384
 7721SOL     OW24603   5.584   1.293   6.031 -0.7775  0.1472  0.0046
 7721SOL    HW124604   5.669   1.250   6.027 -1.6160 -1.5172 -0.9866
 7721SOL    HW224605   5.578   1.342   5.949 -0.0215  1.8932  0.9257
 7722SOL     OW24606   0.605   4.646   9.719  0.2135 -0.1679  0.1021
 7722SOL    HW124607   0.657   4.713   9.673  1.3117 -1.4447 -0.6005
 7722SOL    HW224608   0.588   4.684   9.805  1.6767  0.6412  0.0773
 7723SOL     OW24609   6.016   5.877   3.369 -0.0330 -0.1856  0.2655
 7723SOL    HW124610   6.066   5.805   3.332 -0.6393 -1.3107  1.5101
 7723SOL    HW224611   5.987   5.843   3.454  0.5096  1.8988  1.3385
 7724SOL     OW24612   0.787   3.649   7.873  0.2525  0.4934  0.6084
 7724SOL    HW124613   0.760   3.644   7.965 -1.1957 -0.5775  0.1821
 7724SOL    HW224614   0.709   3.620   7.825  0.9952  1.0095 -0.9559
 7725SOL     OW24615   3.181   0.366   0.565 -0.3084 -0.1083  0.0446
 7725SOL    HW124616   3.204   0.285   0.611 -0.4548 -0.3013 -0.2191
 7725SOL    HW224617   3.110   0.404   0.616 -1.8641 -1.3488 -1.1092
 7726SOL     OW24618   2.666   1.126   2.494 -0.2357 -0.0009  0.6049
 7726SOL    HW124619   2.727   1.053   2.505 -1.6628 -1.7377 -1.9522
 7726SOL    HW224620   2.708   1.183   2.429 -0.7759 -0.5551 -0.2388
 7727SOL     OW24621   3.633   1.827   4.323  0.2930  0.0601 -0.2565
 7727SOL    HW124622   3.594   1.841   4.409  0.4098 -2.2427  0.2227
 7727SOL    HW224623   3.707   1.888   4.321  0.2120  0.2562  1.2227
 7728SOL     OW24624   4.659   6.669  11.104  0.3547 -0.2667 -0.0509
 7728SOL    HW124625   4.607   6.644  11.027 -0.1685 -2.1204  0.8431
 7728SOL    HW224626   4.609   6.740  11.144  1.4387  1.8529 -2.2097
 7729SOL     OW24627   3.680   5.463  11.359 -0.0655 -0.1156 -0.3683
 7729SOL    HW124628   3.690   5.385  11.414  1.5652  0.7883  0.7334
 7729SOL    HW224629   3.765   5.508  11.367 -0.2333  0.7250 -2.6340
 7730SOL     OW24630   6.747   7.294   3.749  0.6165 -0.2685  0.0797
 7730SOL    HW124631   6.728   7.388   3.740  0.7290  0.0103  2.2428
 7730SOL    HW224632   6.786   7.270   3.665  0.5044  1.6020 -0.5618
 7731SOL     OW24633   5.859   5.284   0.259  0.6133  0.1000  0.2147
 7731SOL    HW124634   5.859   5.217   0.327 -1.1686 -1.2944 -1.0680
 7731SOL    HW224635   5.780   5.335   0.276  0.3787 -0.0016 -0.5745
 7732SOL     OW24636   3.685   0.836   9.964 -0.3059 -0.0136 -0.8725
 7732SOL    HW124637   3.759   0.891   9.938 -0.0680  0.2110  0.2551
 7732SOL    HW224638   3.608   0.890   9.946 -0.1244  0.3102 -0.6878
 7733SOL     OW24639   5.193   7.338   8.329 -0.2634  0.3805  0.7343
 7733SOL    HW124640   5.267   7.348   8.269 -1.0697 -0.3717 -0.4280
 7733SOL    HW224641   5.214   7.395   8.403  1.9570 -0.5923  0.9165
 7734SOL     OW24642   0.890   3.793   6.046  0.7124  0.0050 -0.0136
 7734SOL    HW124643   0.981   3.794   6.074  0.0870  1.2801  2.2253
 7734SOL    HW224644   0.846   3.735   6.109  0.1020 -1.4284 -1.6810
 7735SOL     OW24645   4.311   5.572   1.864 -0.1581  0.4259 -0.0110
 7735SOL    HW124646   4.314   5.498   1.925 -0.9783  0.6177  0.2819
 7735SOL    HW224647   4.381   5.630   1.892 -0.2486  0.2994  0.4780
 7736SOL     OW24648   0.886   0.608  12.184  0.2994  0.1520  0.0568
 7736SOL    HW124649   0.980   0.594  12.181  0.1000 -1.0775 -1.3823
 7736SOL    HW224650   0.857   0.556  12.260  0.8320  1.0877  0.9275
 7737SOL     OW24651   7.008   2.695   0.989 -0.3567 -0.6294 -0.2134
 7737SOL    HW124652   7.018   2.600   0.991  1.4509 -0.4920 -0.7487
 7737SOL    HW224653   6.959   2.713   0.909 -1.5928 -1.1329  0.3946
 7738SOL     OW24654   7.639   5.438   0.636 -0.3699 -0.4060  0.4768
 7738SOL    HW124655   7.553   5.443   0.596 -0.6115  0.0541  1.0502
 7738SOL    HW224656   7.628   5.381   0.711  0.1722 -1.5933 -0.3071
 7739SOL     OW24657   1.807   3.285  10.434  0.4384  0.1758 -0.5892
 7739SOL    HW124658   1.764   3.327  10.508  0.4662  1.2122 -1.1527
 7739SOL    HW224659   1.768   3.325  10.357  0.7994 -0.5004 -1.1410
 7740SOL     OW24660   4.981   6.038   0.766  0.0258 -0.0583 -0.1448
 7740SOL    HW124661   5.026   6.026   0.682 -1.1209 -0.2341 -0.7628
 7740SOL    HW224662   4.940   5.954   0.784  2.4073 -0.8915  1.9732
 7741SOL     OW24663   7.272   4.101   6.619 -0.8753  0.5805 -0.0568
 7741SOL    HW124664   7.342   4.035   6.620  0.2181  1.5797  2.8270
 7741SOL    HW224665   7.273   4.135   6.530  1.8248 -0.0117 -0.3631
 7742SOL     OW24666   0.989   7.239   0.889  0.3394  0.4279 -0.7231
 7742SOL    HW124667   1.012   7.254   0.981  0.2307 -0.2937 -0.5725
 7742SOL    HW224668   1.045   7.165   0.862 -0.5765 -0.2377 -0.8438
 7743SOL     OW24669   1.146   6.968   5.046  0.1100 -0.2548  0.2247
 7743SOL    HW124670   1.130   7.063   5.051  1.1879 -0.0620  0.2106
 7743SOL    HW224671   1.202   6.957   4.969 -0.8880 -1.0417 -0.4094
 7744SOL     OW24672   3.123   5.866   4.190 -0.5441  0.3029  0.3924
 7744SOL    HW124673   3.188   5.903   4.131 -0.7672 -0.4586 -0.3538
 7744SOL    HW224674   3.130   5.919   4.269  0.6048  0.5794  0.1327
 7745SOL     OW24675   1.660   4.844   0.715 -0.0546 -0.0577 -0.0441
 7745SOL    HW124676   1.665   4.888   0.630 -1.7916  0.5257  0.1190
 7745SOL    HW224677   1.567   4.827   0.728  0.2577 -0.8283  1.4143
 7746SOL     OW24678   2.688   6.701   9.797  0.0251  0.0904 -0.3023
 7746SOL    HW124679   2.719   6.767   9.735  2.4436  0.2831  0.9897
 7746SOL    HW224680   2.640   6.751   9.863 -1.0786  0.0984 -1.0924
 7747SOL     OW24681   4.744   2.776   6.397 -0.2256  0.1363  0.2298
 7747SOL    HW124682   4.742   2.862   6.439 -0.0666  0.3224 -0.1376
 7747SOL    HW224683   4.769   2.715   6.466 -2.6405  0.0260  1.1038
 7748SOL     OW24684   1.546   4.808  11.714  0.1494 -0.3345  0.0754
 7748SOL    HW124685   1.484   4.741  11.683  0.5953 -0.2736 -1.0048
 7748SOL    HW224686   1.574   4.853  11.634  0.7947  0.3235  0.6620
 7749SOL     OW24687   2.408   4.080   4.691  0.6822  0.2472 -0.0990
 7749SOL    HW124688   2.493   4.095   4.651  1.5237 -2.0365  0.6417
 7749SOL    HW224689   2.387   3.989   4.669 -1.0716  0.4347  0.6326
 7750SOL     OW24690   6.559   5.115   3.861 -0.0505  0.0617  0.2764
 7750SOL    HW124691   6.640   5.065   3.872 -0.4219 -0.2802  1.6541
 7750SOL    HW224692   6.580   5.202   3.896 -0.0940  0.1746  0.0256
 7751SOL     OW24693   2.733   1.243   9.182 -0.2406  0.9139  0.5467
 7751SOL    HW124694   2.713   1.225   9.274 -0.2471 -0.0403  0.3665
 7751SOL    HW224695   2.678   1.182   9.133  1.7774 -0.5613 -0.0068
 7752SOL     OW24696   7.543   3.833   2.268  0.0579 -0.4323 -0.1051
 7752SOL    HW124697   7.604   3.902   2.241  0.2683 -0.3482  0.5598
 7752SOL    HW224698   7.502   3.868   2.347 -2.1664  0.2722 -1.4626
 7753SOL     OW24699   2.962   1.210  10.317 -0.3722  0.5865  0.1848
 7753SOL    HW124700   2.875   1.180  10.344 -0.2691 -1.2589 -1.3065
 7753SOL    HW224701   3.021   1.140  10.344  0.3754  0.9496 -0.4716
 7754SOL     OW24702   7.858   7.104   4.597 -0.0695  0.0136 -0.2809
 7754SOL    HW124703   7.824   7.024   4.557  1.0606 -0.4429 -0.3579
 7754SOL    HW224704   7.937   7.124   4.548  0.9614 -0.1624  1.2468
 7755SOL     OW24705   2.919   7.546  12.393  0.2622 -0.9966  0.2114
 7755SOL    HW124706   2.890   7.500  12.471 -1.9293 -0.7764 -0.4061
 7755SOL    HW224707   2.873   7.503  12.321  0.7445  0.0308 -0.7484
 7756SOL     OW24708   6.943   4.956   7.363  0.1792  0.2510 -0.0699
 7756SOL    HW124709   6.867   4.899   7.351  0.4955  0.0488 -1.2326
 7756SOL    HW224710   7.014   4.896   7.385  0.3091  0.2966 -0.3685
 7757SOL     OW24711   1.700   5.234   9.636 -0.2019 -0.5464 -0.4316
 7757SOL    HW124712   1.734   5.297   9.700 -1.8547  1.3665 -1.3276
 7757SOL    HW224713   1.714   5.148   9.677 -0.9661  0.5707  2.3997
 7758SOL     OW24714   1.965   4.792   5.283 -0.6575 -1.0060 -0.1160
 7758SOL    HW124715   1.878   4.763   5.256 -1.6752  2.5899 -1.1640
 7758SOL    HW224716   2.024   4.754   5.218 -1.9114 -0.4760 -1.6198
 7759SOL     OW24717   2.762   2.814  11.160  0.0942 -0.0377  0.2934
 7759SOL    HW124718   2.729   2.851  11.241 -0.9712 -0.8523  0.2619
 7759SOL    HW224719   2.697   2.838  11.094  0.6658  0.1534 -0.2102
 7760SOL     OW24720   2.186   6.744   5.775  1.1369  0.7692 -0.1210
 7760SOL    HW124721   2.256   6.730   5.839  0.9417  0.5574  0.0479
 7760SOL    HW224722   2.140   6.822   5.806  1.7061  1.3046 -0.5995
 7761SOL     OW24723   0.190   3.413   8.006 -0.6041  0.0886 -0.0245
 7761SOL    HW124724   0.163   3.323   7.990 -0.5423 -0.3068  1.8500
 7761SOL    HW224725   0.197   3.419   8.102  1.2285  1.5432 -0.1987
 7762SOL     OW24726   1.020   4.035  11.906 -0.6743 -0.3952  0.2364
 7762SOL    HW124727   1.053   3.999  11.988 -0.6578 -0.8997  0.0154
 7762SOL    HW224728   1.045   4.127  11.908 -0.3549 -0.4865  0.6356
 7763SOL     OW24729   2.208   0.275  10.984  0.2311 -0.0731  0.4179
 7763SOL    HW124730   2.116   0.289  11.007 -0.4127 -1.5647 -1.0893
 7763SOL    HW224731   2.257   0.317  11.055 -1.6018  0.2680  1.5392
 7764SOL     OW24732   2.170   5.349   2.757 -0.3373 -0.3225 -0.2333
 7764SOL    HW124733   2.133   5.413   2.817 -1.3433  0.3338 -1.5135
 7764SOL    HW224734   2.220   5.400   2.694  0.7290 -1.0028  0.0241
 7765SOL     OW24735   5.760   7.038   8.565 -0.3990  0.5261 -0.2757
 7765SOL    HW124736   5.810   7.097   8.508 -1.0606  0.2444 -1.1785
 7765SOL    HW224737   5.815   7.026   8.642  0.7029  0.6016 -1.0321
 7766SOL     OW24738   6.121   0.712   2.708 -0.3071 -0.1280  0.1874
 7766SOL    HW124739   6.160   0.657   2.640 -1.2523 -1.3307  0.6033
 7766SOL    HW224740   6.139   0.666   2.790  1.0976  1.4578  0.8550
 7767SOL     OW24741   1.936   6.561   4.923  0.5295  0.1185 -0.2117
 7767SOL    HW124742   2.027   6.564   4.895  0.4400 -1.0966 -0.6793
 7767SOL    HW224743   1.940   6.529   5.013  0.6216  1.1519  0.1657
 7768SOL     OW24744   4.417   6.940  11.690 -0.0142 -0.4134 -0.0804
 7768SOL    HW124745   4.332   6.984  11.698  0.3193  0.3514 -0.6629
 7768SOL    HW224746   4.395   6.847  11.681 -0.9403 -0.0574 -2.3156
 7769SOL     OW24747   3.956   4.760   0.037 -0.1296 -0.0498 -0.0162
 7769SOL    HW124748   3.915   4.745   0.122  1.7913 -1.7394  0.6885
 7769SOL    HW224749   4.027   4.821   0.055 -0.1513  0.1357 -0.5509
 7770SOL     OW24750   0.141   0.319  12.162  0.2839 -0.4385 -0.5692
 7770SOL    HW124751   0.171   0.234  12.132  0.9493 -0.5997  0.5136
 7770SOL    HW224752   0.220   0.366  12.186 -0.0088  0.7969 -1.8869
 7771SOL     OW24753   7.296   3.286  11.426  0.2110 -0.0191 -0.3192
 7771SOL    HW124754   7.220   3.281  11.368  0.3196 -1.1622 -0.3873
 7771SOL    HW224755   7.337   3.199  11.419  0.5320  0.0048  1.0568
 7772SOL     OW24756   0.032   6.585  10.450 -0.5563 -0.2247 -0.3579
 7772SOL    HW124757   0.068   6.629  10.372  0.6356 -0.4236  0.0567
 7772SOL    HW224758   0.079   6.502  10.454 -0.1345  0.0505  0.9204
 7773SOL     OW24759   2.515   2.479   3.947  0.5102  0.0341 -0.4949
 7773SOL    HW124760   2.447   2.449   4.008  1.1044  0.5380  0.4366
 7773SOL    HW224761   2.567   2.541   3.998  0.2832  1.4264 -1.8831
 7774SOL     OW24762   6.446   5.950   1.213  0.2385  0.4704 -0.0371
 7774SOL    HW124763   6.445   6.045   1.203  1.0056  0.5342  0.4218
 7774SOL    HW224764   6.468   5.936   1.305  0.4994 -0.1559 -0.1911
 7775SOL     OW24765   6.447   2.927   8.899  0.2005 -0.2312  0.3809
 7775SOL    HW124766   6.500   2.933   8.979 -2.2321  0.9202  2.0578
 7775SOL    HW224767   6.455   3.013   8.858 -0.4764  0.0236  0.7602
 7776SOL     OW24768   5.121   4.300   4.420  0.6988 -0.3340  0.6480
 7776SOL    HW124769   5.028   4.282   4.410  0.5505  0.5421  0.3824
 7776SOL    HW224770   5.125   4.389   4.453  1.4996  1.0810 -2.8326
 7777SOL     OW24771   5.848   7.753  11.002  0.5344 -0.0936 -1.0148
 7777SOL    HW124772   5.807   7.835  10.974  0.0222 -0.0144 -0.0587
 7777SOL    HW224773   5.803   7.685  10.952 -1.1719 -0.0581  0.3970
 7778SOL     OW24774   5.843   4.494   0.421  0.1925 -0.7153 -0.0385
 7778SOL    HW124775   5.828   4.441   0.499  0.4185  0.5642  0.9138
 7778SOL    HW224776   5.763   4.483   0.370 -0.1473 -1.2264  0.5852
 7779SOL     OW24777   5.707   0.459  11.264 -0.3833  0.1176  0.1740
 7779SOL    HW124778   5.679   0.545  11.233  1.2806  1.1880  1.4748
 7779SOL    HW224779   5.651   0.397  11.217 -1.6287  1.8949 -0.7906
 7780SOL     OW24780   0.337   6.591  11.545 -0.2686 -0.4727 -0.3616
 7780SOL    HW124781   0.282   6.612  11.469  0.2924 -0.2607 -0.7196
 7780SOL    HW224782   0.276   6.555  11.609 -1.0543  1.0375 -0.2179
 7781SOL     OW24783   0.601   4.509   6.087  0.4441  0.0930  0.0649
 7781SOL    HW124784   0.685   4.535   6.124  0.2813 -0.8337  1.1242
 7781SOL    HW224785   0.549   4.481   6.162 -0.2690 -0.8230 -0.7450
 7782SOL     OW24786   3.662   0.682  11.496  0.6353 -0.0277 -0.8449
 7782SOL    HW124787   3.650   0.596  11.454  0.6314  0.3404 -1.6122
 7782SOL    HW224788   3.737   0.720  11.451  0.2144  0.6557 -0.9811
 7783SOL     OW24789   2.875   3.606  12.340 -0.3287  0.1415  0.4512
 7783SOL    HW124790   2.810   3.624  12.272  0.4274  0.3467 -0.2423
 7783SOL    HW224791   2.878   3.686  12.392 -1.7056 -0.4142  1.4245
 7784SOL     OW24792   1.948   7.859   4.984  0.2436  0.0463 -0.1199
 7784SOL    HW124793   1.980   7.792   5.043  0.3971 -0.8407 -1.1712
 7784SOL    HW224794   1.878   7.903   5.032  0.2919 -0.7262  0.6678
 7785SOL     OW24795   1.179   4.734   9.953  0.7198  0.5586  0.1004
 7785SOL    HW124796   1.231   4.814   9.962 -0.7639  1.5350  0.3287
 7785SOL    HW224797   1.128   4.729  10.033 -0.2259  0.1337 -0.5131
 7786SOL     OW24798   7.550   1.203   6.183 -0.0012  0.5820 -0.0142
 7786SOL    HW124799   7.592   1.281   6.220  0.5809  1.6575 -2.7303
 7786SOL    HW224800   7.579   1.131   6.239 -0.4555  2.2216  2.5187
 7787SOL     OW24801   2.001   1.833   7.084 -0.0247 -0.2211 -0.0946
 7787SOL    HW124802   1.958   1.880   7.012  4.1405  2.7778 -0.9393
 7787SOL    HW224803   2.046   1.760   7.041  0.7295  0.2978 -0.1827
 7788SOL     OW24804   7.051   3.038  11.864  0.4705 -0.1622  0.0563
 7788SOL    HW124805   7.069   3.123  11.825 -0.7573  0.3719  0.6120
 7788SOL    HW224806   6.995   2.993  11.801 -0.4939  0.2221  0.6117
 7789SOL     OW24807   4.203   1.344   8.789 -0.2461 -0.3464  0.0237
 7789SOL    HW124808   4.155   1.266   8.764 -2.6162  1.0754 -0.0883
 7789SOL    HW224809   4.258   1.364   8.714 -2.1041 -0.0634 -1.3106
 7790SOL     OW24810   7.066   4.956   6.026  0.0697  0.1348  0.3028
 7790SOL    HW124811   6.981   4.993   6.001  0.5705  0.7425 -0.5761
 7790SOL    HW224812   7.050   4.914   6.110 -0.9439  0.8177  0.4739
 7791SOL     OW24813   7.263   3.959   7.271 -0.0915  0.0666  0.6234
 7791SOL    HW124814   7.299   3.897   7.209 -0.2904  0.3151  0.2521
 7791SOL    HW224815   7.241   4.036   7.218 -0.1335  0.3347  1.0230
 7792SOL     OW24816   5.060   7.790  10.992 -0.2848  0.1206  0.1422
 7792SOL    HW124817   4.969   7.814  10.977 -0.0530  1.2540  0.4527
 7792SOL    HW224818   5.100   7.869  11.029  0.4755 -0.8182  1.3966
 7793SOL     OW24819   1.111   3.530   8.593 -0.4963  0.5923  0.4973
 7793SOL    HW124820   1.029   3.539   8.642 -0.0624 -1.8252  1.8539
 7793SOL    HW224821   1.144   3.444   8.618  2.2404  1.2887 -0.3911
 7794SOL     OW24822   1.681   5.586   6.314 -0.2640  0.1589 -0.3497
 7794SOL    HW124823   1.629   5.635   6.378  2.0628  2.1984  0.1465
 7794SOL    HW224824   1.700   5.502   6.357 -2.6405 -0.4418 -0.3679
 7795SOL     OW24825   7.762   4.457  10.834 -0.1395 -0.4083  0.0142
 7795SOL    HW124826   7.790   4.549  10.833 -2.3265  0.3279 -1.8152
 7795SOL    HW224827   7.758   4.434  10.927 -1.5449  2.0500  0.6431
 7796SOL     OW24828   1.963   0.193   3.981 -0.6143 -0.1615 -0.1919
 7796SOL    HW124829   2.041   0.156   3.939 -1.7552 -1.2002 -1.4662
 7796SOL    HW224830   1.984   0.190   4.075  0.7712 -0.6588 -0.4820
 7797SOL     OW24831   2.358   7.010   0.631  0.0517 -0.2459  0.1067
 7797SOL    HW124832   2.289   7.051   0.683 -1.2632 -1.9697 -0.1626
 7797SOL    HW224833   2.428   7.075   0.628 -1.5424  1.5877  0.4087
 7798SOL     OW24834   2.739   3.875   4.256 -0.0878  0.6162  0.3032
 7798SOL    HW124835   2.752   3.948   4.195 -0.3390  0.8868  0.5733
 7798SOL    HW224836   2.770   3.908   4.340  0.3969  0.1927  0.2967
 7799SOL     OW24837   7.285   0.111   4.734 -0.5580 -0.0175 -0.5660
 7799SOL    HW124838   7.358   0.051   4.718  0.7874  2.1312 -3.1379
 7799SOL    HW224839   7.314   0.164   4.808 -0.2003 -0.1736 -0.5903
 7800SOL     OW24840   4.917   5.971  12.314 -0.0247  0.0099  0.0501
 7800SOL    HW124841   4.887   6.007  12.398  0.4916  0.0454  0.2228
 7800SOL    HW224842   5.002   6.013  12.299 -0.8910  1.3578 -1.3531
 7801SOL     OW24843   3.234   4.742   6.578  0.1371 -0.1997 -0.3885
 7801SOL    HW124844   3.259   4.651   6.591 -1.2527 -0.6895 -0.9707
 7801SOL    HW224845   3.216   4.749   6.484 -0.2391  0.5434 -0.2722
 7802SOL     OW24846   3.951   1.463   8.438 -0.2987  0.0996 -0.1762
 7802SOL    HW124847   3.885   1.451   8.370 -0.0650 -2.5722 -0.0424
 7802SOL    HW224848   4.035   1.461   8.391 -0.1540 -1.3561  0.0922
 7803SOL     OW24849   7.464   0.134   6.159 -0.1292  0.1622  0.1202
 7803SOL    HW124850   7.519   0.062   6.191 -0.1053 -0.2080 -0.7315
 7803SOL    HW224851   7.463   0.122   6.064 -1.3492  0.4128  0.0981
 7804SOL     OW24852   1.707   0.700   1.899 -0.1206  0.1931 -0.1970
 7804SOL    HW124853   1.613   0.695   1.916 -0.1805 -2.7204 -0.9034
 7804SOL    HW224854   1.733   0.610   1.884  2.4277  1.1404 -2.0560
 7805SOL     OW24855   2.263   1.675   5.234  0.5217 -0.7538 -0.6133
 7805SOL    HW124856   2.343   1.649   5.186  1.4916 -2.7222  1.8276
 7805SOL    HW224857   2.289   1.673   5.326 -2.0935 -0.3591  0.2095
 7806SOL     OW24858   4.495   0.661   2.861  0.3642  0.3956  0.6529
 7806SOL    HW124859   4.486   0.633   2.952  0.6699 -1.1514  0.2349
 7806SOL    HW224860   4.558   0.600   2.823 -0.8200  0.1225 -0.9633
 7807SOL     OW24861   7.713   6.145   8.467 -0.3653 -0.0199 -0.1022
 7807SOL    HW124862   7.747   6.188   8.545 -1.0136 -0.1211  0.2467
 7807SOL    HW224863   7.682   6.060   8.498  1.8631 -1.2362 -0.9600
 7808SOL     OW24864   0.882   0.636  11.480  0.0169  0.1735  0.4328
 7808SOL    HW124865   0.873   0.671  11.569  1.8109 -2.0230  1.5797
 7808SOL    HW224866   0.976   0.629  11.467 -0.2299 -2.0690 -0.5425
 7809SOL     OW24867   1.567   3.980  10.569  0.1483  0.1434 -0.4730
 7809SOL    HW124868   1.600   3.936  10.491 -0.3264 -0.2406 -0.4672
 7809SOL    HW224869   1.534   4.064  10.537  0.9307  0.4445 -0.5085
 7810SOL     OW24870   4.262   7.477   7.114 -0.1332  0.1300 -0.1470
 7810SOL    HW124871   4.167   7.468   7.114 -0.1738  0.0893  1.6311
 7810SOL    HW224872   4.278   7.555   7.167  0.8433 -0.3153  0.2320
 7811SOL     OW24873   1.044   1.907   5.327  0.3933 -0.4687  0.3404
 7811SOL    HW124874   1.050   1.902   5.423  0.7978 -1.5885  0.2668
 7811SOL    HW224875   0.962   1.862   5.306 -0.5182  1.1331  0.2386
 7812SOL     OW24876   0.909   4.818   5.004 -0.6134 -0.3860  0.6008
 7812SOL    HW124877   0.948   4.739   5.041  0.3801 -1.3195 -2.1800
 7812SOL    HW224878   0.907   4.802   4.909 -1.1937  2.5860  0.0060
 7813SOL     OW24879   4.126   1.032  11.039 -0.0939 -0.1132 -0.4375
 7813SOL    HW124880   4.138   1.098  10.970  0.2352  0.9823  0.6411
 7813SOL    HW224881   4.085   1.080  11.111  0.2253 -1.0738  0.3981
 7814SOL     OW24882   5.114   7.186   8.768  0.1098 -0.4370  0.6394
 7814SOL    HW124883   5.074   7.273   8.764  1.3467  0.1658  0.8695
 7814SOL    HW224884   5.055   7.130   8.718 -0.5627  0.5906  0.2527
 7815SOL     OW24885   0.404   4.419   4.524 -0.4890 -0.3227 -0.0850
 7815SOL    HW124886   0.342   4.355   4.561 -0.9767 -0.5627 -1.2902
 7815SOL    HW224887   0.395   4.409   4.430  1.1259 -0.0773 -0.2827
 7816SOL     OW24888   6.903   3.797   3.172  0.1155 -0.0557  0.3404
 7816SOL    HW124889   6.955   3.876   3.190 -1.0910  0.8402  0.0946
 7816SOL    HW224890   6.820   3.814   3.217  0.3152 -1.8229  1.4432
 7817SOL     OW24891   3.164   0.406  11.684 -0.0529  0.3222  0.5933
 7817SOL    HW124892   3.139   0.446  11.767  2.7407  1.6338  0.9217
 7817SOL    HW224893   3.232   0.464  11.649 -1.8049  0.4060 -3.1727
 7818SOL     OW24894   7.850   6.888  10.481 -0.0817 -0.1958 -0.0174
 7818SOL    HW124895   7.938   6.878  10.518  0.3281  1.6607 -0.4052
 7818SOL    HW224896   7.854   6.843  10.396  0.7413  0.5540 -0.3826
 7819SOL     OW24897   1.273   6.560   1.444 -0.0125  0.2589  0.2134
 7819SOL    HW124898   1.309   6.649   1.437 -0.3746  0.3388 -0.9130
 7819SOL    HW224899   1.179   6.574   1.453  0.0237  0.0019  1.0476
 7820SOL     OW24900   2.585   7.017   0.348 -0.0581  0.2758 -0.7109
 7820SOL    HW124901   2.673   7.049   0.367  0.0927  0.1443 -1.1811
 7820SOL    HW224902   2.532   7.097   0.340  0.0018  0.3525 -0.3664
 7821SOL     OW24903   3.339   4.733   9.790  0.0378 -0.0976 -0.0280
 7821SOL    HW124904   3.264   4.675   9.802  0.9227 -1.2333  0.0763
 7821SOL    HW224905   3.413   4.688   9.831  0.9812  0.5695 -0.9313
 7822SOL     OW24906   1.709   2.558  12.083 -0.3084  0.4895  0.0944
 7822SOL    HW124907   1.742   2.505  12.010  1.6257 -1.6588  2.3551
 7822SOL    HW224908   1.651   2.499  12.131  1.1233  0.6647  2.1431
 7823SOL     OW24909   2.206   5.378  10.585  0.1055  0.2324  0.0876
 7823SOL    HW124910   2.151   5.422  10.521  0.5036  1.8772  0.8200
 7823SOL    HW224911   2.200   5.433  10.664  1.7325 -0.2500  0.5893
 7824SOL     OW24912   1.016   4.454   0.655  0.5312 -0.1710 -0.0522
 7824SOL    HW124913   0.968   4.492   0.583 -0.6036  0.1575  0.8525
 7824SOL    HW224914   0.980   4.366   0.665  1.5469 -0.6750 -0.6614
 7825SOL     OW24915   7.386   1.506   5.355 -0.3551  0.0167  0.3916
 7825SOL    HW124916   7.309   1.461   5.320 -0.1304  0.5334 -0.8248
 7825SOL    HW224917   7.442   1.521   5.278  0.6566  0.2424  1.1510
 7826SOL     OW24918   7.788   0.856   5.749  0.5346  0.6683 -0.5532
 7826SOL    HW124919   7.773   0.769   5.787 -0.8905  1.0855 -0.1236
 7826SOL    HW224920   7.879   0.876   5.773  0.5460 -0.2506  0.2637
 7827SOL     OW24921   2.033   2.467   6.631 -0.0964 -0.3170  0.4808
 7827SOL    HW124922   1.991   2.413   6.564 -0.8316  1.0851 -0.2285
 7827SOL    HW224923   1.971   2.538   6.647  1.8645  1.7669 -0.5084
 7828SOL     OW24924   3.216   1.709   3.342 -0.1658 -0.1805  0.2783
 7828SOL    HW124925   3.210   1.691   3.248 -0.7030 -0.7354  0.4107
 7828SOL    HW224926   3.283   1.777   3.349 -0.0332 -0.2180 -0.4942
 7829SOL     OW24927   5.844   6.384   8.023 -0.2231 -0.3030  0.3930
 7829SOL    HW124928   5.831   6.318   7.955 -2.5078  0.6268 -0.1780
 7829SOL    HW224929   5.872   6.462   7.974 -0.8489  0.0698  0.6107
 7830SOL     OW24930   1.795   5.063   3.447  0.2703 -0.7271 -0.3505
 7830SOL    HW124931   1.815   5.045   3.355 -0.4728  0.5097 -0.7912
 7830SOL    HW224932   1.862   5.127   3.473  0.9374 -1.6361  0.2116
 7831SOL     OW24933   0.903   3.635   5.729  0.2904 -0.2641 -0.1557
 7831SOL    HW124934   0.955   3.595   5.799  0.5261  1.6780  0.8494
 7831SOL    HW224935   0.965   3.650   5.658  0.0746 -2.1423 -0.7980
 7832SOL     OW24936   5.074   3.957   4.303  0.2416 -0.6827 -0.3098
 7832SOL    HW124937   5.020   3.989   4.231 -0.8165 -2.3658 -0.3206
 7832SOL    HW224938   5.137   3.898   4.262  1.8803  0.9138 -0.2330
 7833SOL     OW24939   6.225   4.592  10.427  0.1325 -0.2621 -0.0615
 7833SOL    HW124940   6.177   4.541  10.362 -0.2758 -0.1415  0.1423
 7833SOL    HW224941   6.311   4.550  10.432  0.7656  0.6821 -1.8616
 7834SOL     OW24942   3.384   6.949   8.143  0.1290  0.1587 -0.3640
 7834SOL    HW124943   3.420   7.003   8.072  0.8805 -1.5812 -1.3778
 7834SOL    HW224944   3.457   6.938   8.204  0.5455 -1.0780 -1.0356
 7835SOL     OW24945   4.503   2.463   0.851  0.1143  0.8115 -0.2978
 7835SOL    HW124946   4.540   2.482   0.938 -1.1278 -0.4856  0.5577
 7835SOL    HW224947   4.546   2.381   0.825 -1.5528 -0.3408  0.4023
 7836SOL     OW24948   3.850   3.769   7.416 -0.8733  0.4142 -0.3679
 7836SOL    HW124949   3.854   3.855   7.373  0.2187  0.0511 -1.0310
 7836SOL    HW224950   3.913   3.775   7.487  1.6624 -0.8403 -2.3715
 7837SOL     OW24951   3.027   3.869   7.118  0.6396 -0.5062 -0.0128
 7837SOL    HW124952   3.106   3.923   7.115  0.0661  0.3058 -1.3280
 7837SOL    HW224953   3.044   3.798   7.057  0.3526 -0.3076 -0.3300
 7838SOL     OW24954   1.201   4.302   7.773  0.3611  0.2827  0.1901
 7838SOL    HW124955   1.292   4.273   7.761  0.4288  0.6838 -0.2748
 7838SOL    HW224956   1.201   4.393   7.745 -0.1024  0.4020  0.5722
 7839SOL     OW24957   5.371   0.504   0.448  0.2451 -0.0845 -0.0920
 7839SOL    HW124958   5.417   0.444   0.389  0.1327 -0.1211 -0.1442
 7839SOL    HW224959   5.358   0.583   0.396 -2.8555 -1.2453 -1.3683
 7840SOL     OW24960   0.325   0.276   6.851  0.4095 -0.4337 -0.3917
 7840SOL    HW124961   0.383   0.312   6.918  1.7242 -0.8603 -1.2479
 7840SOL    HW224962   0.335   0.334   6.776 -0.6825 -0.2238 -0.3895
 7841SOL     OW24963   7.865   3.779  10.508 -0.3514 -0.0158 -0.4153
 7841SOL    HW124964   7.781   3.825  10.512 -0.4325 -0.1841 -0.2313
 7841SOL    HW224965   7.926   3.845  10.475 -0.0012  0.9099  1.8771
 7842SOL     OW24966   6.307   5.840  11.135 -0.4701  0.1037  0.1681
 7842SOL    HW124967   6.337   5.773  11.075 -1.9802 -1.4708  1.0914
 7842SOL    HW224968   6.315   5.922  11.086 -0.2268 -0.9388 -1.6051
 7843SOL     OW24969   4.320   2.482   2.425 -0.2223 -0.1004  0.0460
 7843SOL    HW124970   4.230   2.516   2.424 -0.5280 -0.8595 -1.0179
 7843SOL    HW224971   4.375   2.559   2.411 -0.5132  0.7234  2.8094
 7844SOL     OW24972   5.049   4.272   9.926  0.4009  0.0856  0.0198
 7844SOL    HW124973   5.038   4.313   9.840 -2.3343  0.3278  0.4270
 7844SOL    HW224974   5.075   4.182   9.906 -1.1829 -0.1491 -1.1283
 7845SOL     OW24975   1.781   1.579   6.537 -0.0862 -0.2127 -0.2722
 7845SOL    HW124976   1.825   1.494   6.527 -0.4027 -0.4673  0.4621
 7845SOL    HW224977   1.848   1.637   6.572 -0.1038 -0.3875  0.0543
 7846SOL     OW24978   0.490   2.414   6.149  0.4270  1.2161 -0.3537
 7846SOL    HW124979   0.399   2.415   6.119  0.3592 -0.1660 -0.2681
 7846SOL    HW224980   0.532   2.487   6.103 -0.3929  0.9853 -1.4926
 7847SOL     OW24981   0.414   2.934   1.001  0.0047 -0.3391 -0.0047
 7847SOL    HW124982   0.388   2.954   0.911 -0.7987  0.0082  0.3001
 7847SOL    HW224983   0.346   2.974   1.056  0.4616 -0.5822  0.7579
 7848SOL     OW24984   4.878   4.323   0.603  0.6209  0.3166  0.0675
 7848SOL    HW124985   4.888   4.275   0.521 -2.1711  0.6222 -0.5331
 7848SOL    HW224986   4.784   4.336   0.612  0.7325 -0.4667  3.7793
 7849SOL     OW24987   3.003   7.836   7.252  0.1500  0.1714 -0.8325
 7849SOL    HW124988   3.011   7.930   7.237  1.4855  0.4386  1.1946
 7849SOL    HW224989   3.084   7.812   7.297 -1.8840 -1.1274  2.4915
 7850SOL     OW24990   7.892   4.472   3.325  0.3170  0.5733  0.7332
 7850SOL    HW124991   7.936   4.557   3.324  0.8302  0.3095  0.4784
 7850SOL    HW224992   7.952   4.415   3.373  2.3140 -0.8660 -3.1194
 7851SOL     OW24993   5.561   4.960   3.583 -0.2511 -0.0153  0.2422
 7851SOL    HW124994   5.551   5.030   3.648 -0.4739  0.3973 -0.2361
 7851SOL    HW224995   5.552   5.004   3.499  1.4699 -0.3008 -0.1221
 7852SOL     OW24996   4.205   7.844  12.042 -0.3345  0.1964 -0.1415
 7852SOL    HW124997   4.199   7.866  11.949  0.0168 -2.1227 -0.7777
 7852SOL    HW224998   4.166   7.757  12.049  2.0762 -0.8718  1.3750
 7853SOL     OW24999   0.404   1.031   1.257  0.2742 -0.9430 -0.4855
 7853SOL    HW125000   0.477   1.071   1.209  0.9995  0.2629  1.5116
 7853SOL    HW225001   0.444   0.997   1.337 -1.3147 -0.3832  0.5869
 7854SOL     OW25002   7.955   2.446   8.673 -0.0973  0.3040 -0.0118
 7854SOL    HW125003   7.989   2.518   8.619  0.9018  0.8706  1.3208
 7854SOL    HW225004   7.900   2.396   8.613  1.0211  0.8584 -1.5833
 7855SOL     OW25005   2.868   7.600  10.547 -0.1422  0.0026 -0.3474
 7855SOL    HW125006   2.891   7.689  10.520 -2.0708  0.8446  0.6090
 7855SOL    HW225007   2.792   7.578  10.494 -0.2297 -0.7275  0.0753
 7856SOL     OW25008   4.744   2.183   4.731 -0.7737 -0.0388 -0.1802
 7856SOL    HW125009   4.749   2.172   4.826  0.8936  0.1742 -0.2192
 7856SOL    HW225010   4.650   2.194   4.714 -1.2979 -1.7549  1.2223
 7857SOL     OW25011   0.554   0.305   4.779  0.6822  0.9516  0.1742
 7857SOL    HW125012   0.480   0.364   4.794  0.3975  0.8720 -0.8030
 7857SOL    HW225013   0.554   0.291   4.684  0.4297 -1.0157  0.4174
 7858SOL     OW25014   1.601   1.998   8.080 -0.8139  0.2239  0.8434
 7858SOL    HW125015   1.530   1.941   8.051  0.1566 -0.2482 -0.7174
 7858SOL    HW225016   1.675   1.939   8.095 -0.1889  0.9214  0.5550
 7859SOL     OW25017   3.672   5.049   4.756 -0.0957 -0.5501  0.2198
 7859SOL    HW125018   3.750   5.014   4.800 -0.8703 -1.4509  0.8980
 7859SOL    HW225019   3.707   5.098   4.681  1.2090  0.4471  1.4319
 7860SOL     OW25020   4.422   5.093   6.008 -0.0559 -0.2369 -0.9005
 7860SOL    HW125021   4.476   5.172   6.016 -0.2254 -0.2860  1.3672
 7860SOL    HW225022   4.391   5.094   5.917  2.0546  0.8899 -1.6807
 7861SOL     OW25023   7.583   4.712   6.269  0.0154 -0.5002 -0.1443
 7861SOL    HW125024   7.531   4.792   6.262 -1.0444 -1.0370  1.3246
 7861SOL    HW225025   7.537   4.648   6.215 -0.7706 -0.9193  0.9975
 7862SOL     OW25026   5.638   3.232   3.468  0.1264 -0.5149 -0.0440
 7862SOL    HW125027   5.617   3.323   3.449 -1.0207 -0.2624  2.1325
 7862SOL    HW225028   5.558   3.196   3.506  1.0470 -1.9887  0.5972
 7863SOL     OW25029   4.703   2.473   9.659 -0.3406  0.1720  0.4902
 7863SOL    HW125030   4.709   2.404   9.592  2.5072 -0.5865  1.3644
 7863SOL    HW225031   4.654   2.433   9.730 -0.3512 -0.2789  0.2359
 7864SOL     OW25032   2.446   3.491   4.100 -0.1483  0.1900  0.4480
 7864SOL    HW125033   2.536   3.513   4.074 -0.8282  0.4366 -1.9502
 7864SOL    HW225034   2.452   3.402   4.133  0.7626 -0.4622 -1.3357
 7865SOL     OW25035   2.902   2.494   8.035  0.2807  0.0071 -0.2200
 7865SOL    HW125036   2.957   2.422   8.004 -0.4598 -0.8477  0.4127
 7865SOL    HW225037   2.962   2.554   8.079  0.6043 -1.3757  1.3097
 7866SOL     OW25038   1.680   1.877   3.117  0.2616 -0.2589  0.0801
 7866SOL    HW125039   1.677   1.972   3.104  0.8506 -0.0227  1.5233
 7866SOL    HW225040   1.598   1.845   3.080 -0.2957  0.9092  0.2677
 7867SOL     OW25041   2.669   5.168   6.288 -0.1281  0.1863  0.3837
 7867SOL    HW125042   2.650   5.231   6.358 -0.0602 -1.0349  1.5492
 7867SOL    HW225043   2.610   5.095   6.306  1.3366 -1.0404  0.3985
 7868SOL     OW25044   1.720   6.706   8.324 -0.6752 -0.2028 -0.2907
 7868SOL    HW125045   1.769   6.627   8.349  0.5426  0.4771 -0.4548
 7868SOL    HW225046   1.650   6.674   8.267 -0.3816 -1.1987 -0.1090
 7869SOL     OW25047   5.472   5.422   1.932 -0.0384  0.3161 -0.1802
 7869SOL    HW125048   5.515   5.346   1.894  0.2324 -0.6760  1.9646
 7869SOL    HW225049   5.542   5.473   1.972 -0.4058  0.8105 -0.1476
 7870SOL     OW25050   4.818   2.691   7.359 -0.4417  0.2387 -0.1121
 7870SOL    HW125051   4.784   2.715   7.446  0.3510 -0.1561  0.3214
 7870SOL    HW225052   4.859   2.605   7.373  0.0576  0.3642 -0.7835
 7871SOL     OW25053   5.009   3.233   8.175  0.4171  0.1226  0.5679
 7871SOL    HW125054   4.924   3.195   8.196  1.4482 -1.5093  2.1109
 7871SOL    HW225055   5.042   3.179   8.103 -0.4226  1.7019 -1.0798
 7872SOL     OW25056   1.167   2.022   3.713 -0.1962  0.1571  0.0354
 7872SOL    HW125057   1.114   1.967   3.771 -1.6910  0.6479 -0.8348
 7872SOL    HW225058   1.126   2.108   3.717  1.9208  1.2231  1.1269
 7873SOL     OW25059   3.160   2.165   6.382  0.3691  0.0977 -0.2788
 7873SOL    HW125060   3.197   2.099   6.440 -0.6989 -0.1127  0.1839
 7873SOL    HW225061   3.065   2.150   6.386 -0.0086  2.4002  0.7731
 7874SOL     OW25062   1.139   0.928   0.894 -0.2931  0.6829 -0.0120
 7874SOL    HW125063   1.080   0.852   0.893 -0.1651  0.5765  0.3245
 7874SOL    HW225064   1.137   0.958   0.985  1.5211 -0.3781  0.4190
 7875SOL     OW25065   0.046   3.206   3.206  0.3703 -0.2235 -0.1295
 7875SOL    HW125066   0.057   3.277   3.142  0.5928  1.9300  2.1297
 7875SOL    HW225067   0.132   3.164   3.211  0.6904  0.3957 -0.3233
 7876SOL     OW25068   7.633   3.367   1.922  0.7299 -0.8862  0.5121
 7876SOL    HW125069   7.727   3.357   1.905  1.0348 -1.5571  2.3383
 7876SOL    HW225070   7.628   3.392   2.014 -0.8188  1.3252 -0.0822
 7877SOL     OW25071   6.440   0.649   4.831  0.6182  0.8735 -0.3778
 7877SOL    HW125072   6.466   0.717   4.769  0.2029  0.3322 -1.1516
 7877SOL    HW225073   6.345   0.656   4.837  0.5247  0.0297 -0.8510
 7878SOL     OW25074   6.984   1.180   2.410  0.4151 -0.4446 -0.0125
 7878SOL    HW125075   6.981   1.269   2.444  0.2037 -0.5593  0.2651
 7878SOL    HW225076   6.928   1.183   2.331  0.7332 -0.2347 -0.2320
 7879SOL     OW25077   5.008   5.023   5.747  0.3184  0.2748 -0.4434
 7879SOL    HW125078   4.943   4.990   5.685  1.3562 -0.5263 -1.1283
 7879SOL    HW225079   5.029   5.111   5.715  1.4284 -0.4230 -1.7379
 7880SOL     OW25080   7.346   6.917   6.880 -0.3183  0.3483  0.6071
 7880SOL    HW125081   7.386   6.851   6.937 -1.7209 -1.4211 -0.3099
 7880SOL    HW225082   7.336   6.872   6.796 -1.0579  1.8575 -0.1477
 7881SOL     OW25083   3.323   3.646   2.364  0.1802  0.2903 -0.0572
 7881SOL    HW125084   3.230   3.661   2.381  0.1982 -0.2154  0.5235
 7881SOL    HW225085   3.366   3.670   2.445  0.4783 -0.2202 -0.0605
 7882SOL     OW25086   7.603   5.831   4.348  0.5559  0.0106 -0.0594
 7882SOL    HW125087   7.660   5.830   4.425 -1.5650  0.4493  1.6149
 7882SOL    HW225088   7.597   5.923   4.324  0.9756 -0.0934 -0.5615
 7883SOL     OW25089   7.555   1.778   0.591  0.4207 -0.4039 -0.3504
 7883SOL    HW125090   7.465   1.800   0.614  0.6695  1.1429 -0.7071
 7883SOL    HW225091   7.561   1.684   0.604 -1.3564 -0.6030 -0.6907
 7884SOL     OW25092   3.013   7.406  10.927 -0.0610  0.4117  0.4935
 7884SOL    HW125093   3.060   7.369  11.001  1.8918 -0.0985 -0.9001
 7884SOL    HW225094   3.065   7.380  10.851 -2.7868 -0.3871 -1.2322
 7885SOL     OW25095   7.653   6.295   0.149 -0.2674 -0.8563  0.7485
 7885SOL    HW125096   7.618   6.241   0.220  1.0803 -1.8432  0.7184
 7885SOL    HW225097   7.746   6.273   0.147  0.1362  0.7778  0.0757
 7886SOL     OW25098   2.257   0.187  12.112 -0.6289 -0.3999 -0.2481
 7886SOL    HW125099   2.268   0.184  12.207  0.6000 -2.6052 -0.3913
 7886SOL    HW225100   2.163   0.199  12.099 -0.5916  2.1633  1.1645
 7887SOL     OW25101   5.461   3.976   6.606  0.0812  0.3633  0.5343
 7887SOL    HW125102   5.491   4.063   6.633 -0.0332  0.4926  0.2507
 7887SOL    HW225103   5.485   3.919   6.678 -0.2509  0.7092  0.9245
 7888SOL     OW25104   3.592   0.962   1.861  0.3885 -0.5131 -0.6026
 7888SOL    HW125105   3.554   1.033   1.914 -0.3038  0.6047 -2.5048
 7888SOL    HW225106   3.685   0.962   1.886  0.0073 -0.3936  0.9632
 7889SOL     OW25107   7.763   4.969   1.791 -0.1189 -0.0396 -0.1317
 7889SOL    HW125108   7.839   4.999   1.841  0.1148  1.3679 -1.2594
 7889SOL    HW225109   7.694   4.956   1.856  0.4175  0.9154  0.6552
 7890SOL     OW25110   5.369   7.059   0.704  0.4928 -0.0018  0.6964
 7890SOL    HW125111   5.411   7.049   0.790  1.1317  1.4454  0.5941
 7890SOL    HW225112   5.366   7.154   0.691  0.7132 -0.2079 -1.0340
 7891SOL     OW25113   0.105   1.979   2.885 -0.2197 -0.2896  0.3837
 7891SOL    HW125114   0.135   2.021   2.965 -1.1944  0.6504  0.2911
 7891SOL    HW225115   0.012   2.001   2.880 -0.5023 -1.5282 -0.2754
 7892SOL     OW25116   5.709   1.843   2.806  0.2445  0.1420 -0.0917
 7892SOL    HW125117   5.722   1.797   2.722  0.7621 -0.1604  0.1467
 7892SOL    HW225118   5.615   1.844   2.818  0.0171  1.7916 -1.5608
 7893SOL     OW25119   7.646   3.877  11.499  0.0587  0.1749  0.5398
 7893SOL    HW125120   7.684   3.878  11.411 -0.6711 -2.3042  0.1037
 7893SOL    HW225121   7.699   3.939  11.548  4.3365 -2.3870 -0.2072
 7894SOL     OW25122   4.124   5.156   3.536 -0.3934 -0.0267 -0.9270
 7894SOL    HW125123   4.204   5.111   3.563 -1.2734 -1.0868  0.0320
 7894SOL    HW225124   4.059   5.128   3.600 -0.9849  2.7334 -0.1970
 7895SOL     OW25125   1.477   2.354   8.930  0.1241 -0.2062  0.1741
 7895SOL    HW125126   1.492   2.403   8.849 -2.1085  1.1245  0.4828
 7895SOL    HW225127   1.522   2.271   8.916  2.7428  1.2869 -0.9854
 7896SOL     OW25128   7.148   2.843  11.202 -0.7981 -0.2195  0.1776
 7896SOL    HW125129   7.205   2.766  11.201 -1.0604 -0.4084 -0.8475
 7896SOL    HW225130   7.123   2.856  11.111  2.4480  3.4832 -0.4738
 7897SOL     OW25131   3.256   6.779   8.344  0.4538  0.6331  0.0345
 7897SOL    HW125132   3.291   6.857   8.301  1.8804  0.3470  0.6211
 7897SOL    HW225133   3.332   6.722   8.357 -0.4463 -0.5714  0.2268
 7898SOL     OW25134   0.078   6.027   4.017  0.1257  0.0206 -0.0286
 7898SOL    HW125135   0.169   6.023   4.044  0.2253 -0.2140 -0.3908
 7898SOL    HW225136   0.074   6.099   3.954  0.3859 -0.9314 -1.1838
 7899SOL     OW25137   3.574   7.326   5.741 -0.4312 -0.6720 -0.1869
 7899SOL    HW125138   3.617   7.252   5.698  1.6180  1.0084 -1.2274
 7899SOL    HW225139   3.645   7.373   5.784 -1.1482  2.2121 -1.8895
 7900SOL     OW25140   6.407   0.691   8.685  0.0748  0.1830 -0.1484
 7900SOL    HW125141   6.437   0.707   8.595  0.8789 -0.7446 -0.0710
 7900SOL    HW225142   6.432   0.600   8.702 -1.6603 -0.2131  0.4118
 7901SOL     OW25143   6.374   2.505  12.221  0.2643 -0.3868 -0.0813
 7901SOL    HW125144   6.292   2.457  12.226  0.0539 -0.0749 -0.4908
 7901SOL    HW225145   6.369   2.552  12.138  1.6160 -1.7225 -0.9703
 7902SOL     OW25146   7.936   5.519   7.761 -0.4811 -0.1411  0.2006
 7902SOL    HW125147   8.013   5.499   7.815 -1.2774 -0.6606  1.1903
 7902SOL    HW225148   7.868   5.539   7.825 -1.4699 -0.8272 -0.6152
 7903SOL     OW25149   1.276   7.640   9.966  0.4167  0.0653  0.0091
 7903SOL    HW125150   1.362   7.638  10.009  1.3750  2.3901 -1.5918
 7903SOL    HW225151   1.288   7.698   9.891 -2.5095  0.2423 -0.4362
 7904SOL     OW25152   5.245   6.015  10.635  0.4477 -0.1016 -0.2897
 7904SOL    HW125153   5.184   5.946  10.660  0.5658  0.0811  0.5262
 7904SOL    HW225154   5.307   5.972  10.575  1.2265 -1.0147  1.1155
 7905SOL     OW25155   6.467   6.557   4.172 -0.0273 -0.2046 -0.1229
 7905SOL    HW125156   6.433   6.524   4.255 -1.6739 -0.0728 -0.7140
 7905SOL    HW225157   6.413   6.515   4.105  0.0408  1.1031 -1.0408
 7906SOL     OW25158   7.032   0.820   8.103  0.1673 -0.5447 -0.3039
 7906SOL    HW125159   7.064   0.758   8.038  0.4287 -0.6983 -0.0306
 7906SOL    HW225160   6.968   0.771   8.155  1.5406 -1.0878  0.9469
 7907SOL     OW25161   2.703   1.861  11.995 -0.3501 -1.3178 -0.4229
 7907SOL    HW125162   2.771   1.812  12.041  0.4563 -0.7062 -0.9376
 7907SOL    HW225163   2.707   1.949  12.033 -0.1700 -1.0087 -1.1401
 7908SOL     OW25164   3.576   4.366   9.297 -0.3138  0.0284  0.4575
 7908SOL    HW125165   3.484   4.392   9.306 -0.8864 -0.8705 -2.0917
 7908SOL    HW225166   3.583   4.288   9.352 -1.8241 -1.3892 -1.2204
 7909SOL     OW25167   5.065   3.535   0.882  1.0093 -0.2501 -0.2335
 7909SOL    HW125168   5.081   3.468   0.815 -1.4255 -1.3674  0.1711
 7909SOL    HW225169   5.105   3.499   0.961  0.2835 -0.9384 -0.1673
 7910SOL     OW25170   2.626   1.804   1.494 -0.4465  0.0601  0.7497
 7910SOL    HW125171   2.649   1.779   1.584  0.2581 -0.1601  0.5186
 7910SOL    HW225172   2.583   1.727   1.458  1.1378 -0.6426  0.2482
 7911SOL     OW25173   0.350   6.615   1.012  0.5783 -0.0802  0.5504
 7911SOL    HW125174   0.375   6.672   1.085  1.4819  0.4443 -0.1427
 7911SOL    HW225175   0.261   6.642   0.989  0.5078  0.1431  1.0780
 7912SOL     OW25176   2.440   1.322   4.948 -0.5370 -0.2608  0.1768
 7912SOL    HW125177   2.384   1.246   4.967  0.0090 -0.6817  0.1498
 7912SOL    HW225178   2.509   1.318   5.014 -0.3753  0.0770  0.0324
 7913SOL     OW25179   5.568   4.175  10.501 -0.1963  0.0038 -0.4085
 7913SOL    HW125180   5.514   4.158  10.578 -0.1981  0.8636 -0.2143
 7913SOL    HW225181   5.507   4.209  10.436 -0.0375  0.1599 -0.4763
 7914SOL     OW25182   4.840   7.893   8.841 -0.1082 -0.9083 -0.4278
 7914SOL    HW125183   4.798   7.816   8.804  3.1277 -2.6930 -0.7355
 7914SOL    HW225184   4.827   7.886   8.935 -1.6561 -0.6140 -0.5996
 7915SOL     OW25185   1.794   2.767   3.198 -0.0487 -0.0851  0.2277
 7915SOL    HW125186   1.806   2.721   3.115  0.5426  0.7174 -0.1380
 7915SOL    HW225187   1.724   2.830   3.181  1.2481  1.2940 -0.1992
 7916SOL     OW25188   6.405   3.750   3.887  0.1884 -0.7635  0.8514
 7916SOL    HW125189   6.495   3.716   3.879  0.3760 -0.1224  0.0666
 7916SOL    HW225190   6.377   3.763   3.797 -0.3907 -0.1727  1.1120
 7917SOL     OW25191   2.425   1.950  11.111 -0.5348 -0.5880  0.2454
 7917SOL    HW125192   2.500   2.010  11.115 -0.1435 -1.0454 -0.0197
 7917SOL    HW225193   2.448   1.879  11.172 -1.2889 -0.1491  1.0499
 7918SOL     OW25194   6.656   1.002   1.271  0.0430  0.4295 -0.0201
 7918SOL    HW125195   6.745   1.038   1.276  0.7378 -0.6797 -2.3395
 7918SOL    HW225196   6.611   1.059   1.209 -0.2037 -0.1242 -0.3639
 7919SOL     OW25197   3.906   2.097   1.815  0.3289  0.3500  0.3758
 7919SOL    HW125198   3.982   2.151   1.837 -0.0186  1.4364 -0.9405
 7919SOL    HW225199   3.905   2.095   1.720 -2.0148  1.4286  0.3280
 7920SOL     OW25200   4.305   5.339   0.652  0.2700  0.0070  0.3564
 7920SOL    HW125201   4.214   5.364   0.638  0.5261  0.3968 -0.7260
 7920SOL    HW225202   4.309   5.312   0.744 -1.2761 -1.5018  0.0355
 7921SOL     OW25203   2.087   5.375   0.029 -0.1061 -0.5400  0.3239
 7921SOL    HW125204   2.171   5.395   0.068 -0.6265  2.0616  0.2475
 7921SOL    HW225205   2.063   5.290   0.067  1.3801 -0.1556  2.2638
 7922SOL     OW25206   1.502   5.126   9.845 -0.4106  0.0145  0.1621
 7922SOL    HW125207   1.473   5.093   9.759 -1.8583  0.0446  0.6010
 7922SOL    HW225208   1.541   5.051   9.888 -2.5527 -0.8888  0.6665
 7923SOL     OW25209   0.431   2.874   8.538 -0.3847  0.3208 -0.1461
 7923SOL    HW125210   0.379   2.938   8.489 -0.3304 -0.9586 -2.0219
 7923SOL    HW225211   0.410   2.790   8.496  2.8744 -0.3265 -0.7456
 7924SOL     OW25212   4.680   7.627   7.925  0.0622 -0.0614  0.2863
 7924SOL    HW125213   4.656   7.543   7.886  1.0151  0.1010 -0.6790
 7924SOL    HW225214   4.776   7.624   7.932  0.3759  1.8912 -2.0617
 7925SOL     OW25215   6.666   6.569   8.208 -0.8626  0.2580  0.4374
 7925SOL    HW125216   6.730   6.600   8.144 -1.8478  0.9535 -0.2567
 7925SOL    HW225217   6.619   6.499   8.164 -0.1462 -0.7079  1.1884
 7926SOL     OW25218   1.609   5.359   5.414  0.1109 -0.3313 -0.4197
 7926SOL    HW125219   1.604   5.450   5.443  0.0484  0.2009 -2.0013
 7926SOL    HW225220   1.641   5.311   5.491  0.8570  1.1314  0.2291
 7927SOL     OW25221   0.406   1.150  10.293  0.5185  0.3269 -0.0267
 7927SOL    HW125222   0.463   1.079  10.264  1.6849  0.3363  2.0537
 7927SOL    HW225223   0.344   1.109  10.353  0.5861  0.8965  0.4399
 7928SOL     OW25224   6.307   7.642   4.913 -0.2029 -0.0082  0.2067
 7928SOL    HW125225   6.328   7.603   4.828  0.0539 -0.0233  0.2771
 7928SOL    HW225226   6.327   7.573   4.977  0.4118  0.2939  0.3460
 7929SOL     OW25227   6.552   5.189  11.052 -0.7623 -0.4927 -0.4551
 7929SOL    HW125228   6.524   5.235  11.131 -0.7804  0.1166 -0.8065
 7929SOL    HW225229   6.493   5.114  11.045 -0.4982 -0.7808  0.3285
 7930SOL     OW25230   6.324   7.435   5.752  0.6568  0.4503  0.2062
 7930SOL    HW125231   6.341   7.390   5.669 -0.5529 -1.4180  0.9024
 7930SOL    HW225232   6.268   7.374   5.801  0.9702  1.7031  2.2206
 7931SOL     OW25233   6.168   2.250   4.219  0.1714  0.3917  0.2353
 7931SOL    HW125234   6.258   2.221   4.203  0.2415 -0.2608  1.6753
 7931SOL    HW225235   6.165   2.338   4.182  0.5650 -0.5845 -2.3804
 7932SOL     OW25236   0.058   6.455   9.680 -0.0220 -0.4069  0.5049
 7932SOL    HW125237   0.095   6.434   9.765  1.4852 -0.7590 -0.2043
 7932SOL    HW225238  -0.019   6.398   9.672 -0.0283 -0.5478  1.5041
 7933SOL     OW25239   1.093   3.050  12.211 -0.3151 -0.1713 -0.1033
 7933SOL    HW125240   1.074   3.044  12.117  0.1290  1.0554 -0.2835
 7933SOL    HW225241   1.026   2.996  12.252 -0.2880 -1.0434 -1.1444
 7934SOL     OW25242   5.637   2.515   4.994  0.0570 -0.3112  0.6190
 7934SOL    HW125243   5.704   2.561   5.045  0.2630 -1.5557  1.5117
 7934SOL    HW225244   5.648   2.548   4.905  0.6230  0.8713  1.0993
 7935SOL     OW25245   1.007   6.173   8.240  0.3780  0.3216  0.0393
 7935SOL    HW125246   0.968   6.089   8.220 -1.3954  0.9839  0.5462
 7935SOL    HW225247   0.946   6.238   8.205  0.8467  1.4118  1.1265
 7936SOL     OW25248   0.348   5.528   0.424 -0.0345 -0.1546 -0.1630
 7936SOL    HW125249   0.348   5.478   0.505 -0.2718  2.7863  1.8075
 7936SOL    HW225250   0.441   5.542   0.404  0.0259  0.4736  0.5348
 7937SOL     OW25251   2.446   0.702   7.007 -0.4601  0.1519 -0.6312
 7937SOL    HW125252   2.527   0.664   7.042 -0.8880  0.4066  0.7107
 7937SOL    HW225253   2.398   0.731   7.085 -0.5255  2.7166 -1.5248
 7938SOL     OW25254   1.825   7.593   7.025  0.0356  0.5257 -0.5705
 7938SOL    HW125255   1.842   7.502   7.052  2.5035  1.2577  0.6289
 7938SOL    HW225256   1.781   7.585   6.940 -0.0180 -1.7746 -0.4003
 7939SOL     OW25257   3.024   0.375   4.670  0.0000  0.2178  0.2676
 7939SOL    HW125258   2.989   0.375   4.759  0.7965  0.6230  0.5902
 7939SOL    HW225259   2.964   0.319   4.620  0.7608 -1.8191  1.5168
 7940SOL     OW25260   5.279   1.732   9.961 -0.5198  0.1610 -0.2437
 7940SOL    HW125261   5.266   1.778  10.044 -0.9923 -0.4212  0.0220
 7940SOL    HW225262   5.363   1.763   9.929 -0.6524  0.9136  0.1126
 7941SOL     OW25263   0.916   4.722   0.076 -0.2782  0.4044 -0.1905
 7941SOL    HW125264   0.998   4.677   0.052  0.5991  1.6455  0.3906
 7941SOL    HW225265   0.882   4.754  -0.007 -0.8562 -1.1841 -0.6025
 7942SOL     OW25266   0.703   1.943   7.836 -0.5182 -0.0697 -0.0090
 7942SOL    HW125267   0.712   1.948   7.741  0.2396  1.0850  0.1072
 7942SOL    HW225268   0.652   1.863   7.851 -0.0044 -0.6750 -1.3394
 7943SOL     OW25269   5.355   0.918   2.478 -0.3372  0.3556 -0.1444
 7943SOL    HW125270   5.435   0.922   2.531  0.6753  0.9719 -1.6507
 7943SOL    HW225271   5.376   0.969   2.400 -2.2183  0.5134 -0.5780
 7944SOL     OW25272   3.205   1.540  10.489 -0.0280 -0.2143  0.5711
 7944SOL    HW125273   3.259   1.461  10.492  0.3719 -0.1383 -2.1753
 7944SOL    HW225274   3.119   1.510  10.460  0.0867  0.2962 -0.3603
 7945SOL     OW25275   5.801   6.708   8.188  0.5246  0.1134 -0.4303
 7945SOL    HW125276   5.758   6.624   8.206  0.7139  0.0313 -0.3539
 7945SOL    HW225277   5.812   6.748   8.274 -0.8308  0.8537 -0.5747
 7946SOL     OW25278   6.107   1.175   5.737 -0.2539  0.1684  0.0507
 7946SOL    HW125279   6.203   1.173   5.732 -0.2380  1.4298 -0.6690
 7946SOL    HW225280   6.082   1.083   5.748  0.9786 -0.3668 -1.2473
 7947SOL     OW25281   4.565   4.839   1.009  0.0926  0.1802 -0.4231
 7947SOL    HW125282   4.643   4.822   0.956  1.5889  3.4064  0.5048
 7947SOL    HW225283   4.590   4.812   1.098  0.6113  2.1427  0.0710
 7948SOL     OW25284   1.333   3.099   5.813  0.0608  0.3819 -0.0792
 7948SOL    HW125285   1.352   3.118   5.721 -0.5608  1.1145 -0.0715
 7948SOL    HW225286   1.253   3.148   5.831 -0.6484 -0.9162  0.4529
 7949SOL     OW25287   3.926   2.449   3.531 -0.2482  0.1557  1.0502
 7949SOL    HW125288   4.013   2.412   3.545 -0.2046 -0.7559 -1.1855
 7949SOL    HW225289   3.941   2.540   3.508 -0.1108  0.6790  2.9892
 7950SOL     OW25290   1.794   1.228  11.004 -0.6122 -0.0228  0.3972
 7950SOL    HW125291   1.719   1.248  11.060 -2.5544 -2.5101 -1.1129
 7950SOL    HW225292   1.844   1.163  11.054 -2.5261 -2.4972 -0.7202
 7951SOL     OW25293   6.881   1.126   3.206  0.5587 -0.1061  0.5117
 7951SOL    HW125294   6.836   1.050   3.243  1.4022  0.0195  1.8614
 7951SOL    HW225295   6.820   1.162   3.142 -0.1180 -1.5371  0.3184
 7952SOL     OW25296   4.555   1.055  10.429  0.1673 -0.0101  0.6960
 7952SOL    HW125297   4.547   0.967  10.393  0.1312  0.2401  0.0909
 7952SOL    HW225298   4.471   1.071  10.472 -1.0498  0.9077 -1.8518
 7953SOL     OW25299   3.420   3.695   4.621  0.1461  0.0696  0.3266
 7953SOL    HW125300   3.447   3.641   4.695  0.7516 -0.4998 -0.2933
 7953SOL    HW225301   3.337   3.656   4.593  0.8503 -0.9316 -0.4670
 7954SOL     OW25302   1.400   1.169  12.208 -0.0881 -0.9245 -0.1274
 7954SOL    HW125303   1.431   1.081  12.188 -0.3840 -0.4634 -3.1805
 7954SOL    HW225304   1.320   1.178  12.156 -0.3650  0.9481  0.5577
 7955SOL     OW25305   7.792   1.324   0.540 -0.4028 -0.6659 -0.0447
 7955SOL    HW125306   7.853   1.250   0.537 -0.6604 -0.9497  1.0653
 7955SOL    HW225307   7.846   1.401   0.530 -0.2655 -1.0110 -2.6152
 7956SOL     OW25308   4.733   1.396  11.233  0.0878 -0.0382  0.0723
 7956SOL    HW125309   4.733   1.472  11.175 -0.5283 -0.6298 -0.7275
 7956SOL    HW225310   4.667   1.415  11.299  0.3280  0.3562  0.1980
 7957SOL     OW25311   0.864   1.130   7.245 -0.2168  0.0716 -0.1898
 7957SOL    HW125312   0.846   1.201   7.307  1.0414  0.9025 -0.7527
 7957SOL    HW225313   0.931   1.077   7.288  1.0403  0.9417 -1.0263
 7958SOL     OW25314   2.605   1.423   8.418 -0.1414  0.3816 -0.7111
 7958SOL    HW125315   2.662   1.499   8.431 -0.1376  0.2091  0.4529
 7958SOL    HW225316   2.520   1.451   8.453 -0.3482  0.1001 -0.9834
 7959SOL     OW25317   4.366   1.098   4.850  0.4945 -0.1655  0.1692
 7959SOL    HW125318   4.367   1.071   4.758  2.1662  1.8860 -0.4891
 7959SOL    HW225319   4.444   1.058   4.888  0.8484  0.5162  0.1809
 7960SOL     OW25320   0.271   3.410   7.143 -0.3007 -0.5355 -0.7112
 7960SOL    HW125321   0.337   3.351   7.106  1.1278 -0.5100  1.5909
 7960SOL    HW225322   0.298   3.497   7.114  2.1069 -0.2586  1.9152
 7961SOL     OW25323   5.931   6.012   1.777 -0.1006 -0.0606  0.0662
 7961SOL    HW125324   5.979   6.046   1.702 -0.8762  0.8855 -0.0234
 7961SOL    HW225325   5.942   5.917   1.772 -0.8786 -0.0864 -1.7625
 7962SOL     OW25326   0.742   6.018   8.181 -0.5453 -0.7388  0.1896
 7962SOL    HW125327   0.726   6.032   8.274 -1.8497  0.4855 -0.1794
 7962SOL    HW225328   0.677   6.073   8.137 -1.0522 -2.5120 -1.4369
 7963SOL     OW25329   2.993   1.290  12.317 -0.1834  0.3609  0.2020
 7963SOL    HW125330   2.917   1.332  12.356 -1.5013 -1.0825 -0.6782
 7963SOL    HW225331   2.978   1.295  12.222  0.1841 -0.9765  0.0435
 7964SOL     OW25332   3.032   0.475   1.097  0.3791  0.1910  0.2864
 7964SOL    HW125333   3.042   0.400   1.038  1.2778  0.8058 -0.3556
 7964SOL    HW225334   3.105   0.467   1.158  1.4728  1.4455 -0.8091
 7965SOL     OW25335   4.900   6.459   8.573 -0.0164  0.5600  0.1979
 7965SOL    HW125336   4.915   6.376   8.619  1.0577 -0.4797 -1.8667
 7965SOL    HW225337   4.984   6.504   8.577 -0.2778  1.0429  0.3408
 7966SOL     OW25338   2.106   1.624   4.800  0.6392 -0.1180 -0.2574
 7966SOL    HW125339   2.193   1.597   4.827  0.6633  0.2688  0.0583
 7966SOL    HW225340   2.119   1.706   4.752  0.5910 -0.7593 -1.4145
 7967SOL     OW25341   7.918   4.374   4.427 -0.4473 -0.0014  0.2354
 7967SOL    HW125342   7.875   4.433   4.365  0.5632  3.1806  2.2974
 7967SOL    HW225343   7.851   4.356   4.493 -0.4853 -0.4176  0.0845
 7968SOL     OW25344   2.294   4.008   8.970  0.3330 -0.1201  0.0659
 7968SOL    HW125345   2.209   3.989   8.930 -0.0906 -0.1999  0.9691
 7968SOL    HW225346   2.354   4.015   8.896  0.5960 -5.0278 -0.5321
 7969SOL     OW25347   6.803   4.898   5.329 -0.3729 -0.1102 -0.0656
 7969SOL    HW125348   6.862   4.921   5.257  2.3229  0.8935  2.2585
 7969SOL    HW225349   6.824   4.807   5.348  0.1736  0.1232  0.4898
 7970SOL     OW25350   6.461   1.772   7.767 -0.5747  0.9828 -0.3516
 7970SOL    HW125351   6.483   1.840   7.702 -2.6643  1.8000 -0.2908
 7970SOL    HW225352   6.467   1.817   7.851 -0.8695  0.7881 -0.2256
 7971SOL     OW25353   0.029   4.438   1.158  0.3438 -0.3380 -0.2228
 7971SOL    HW125354   0.000   4.369   1.218  0.2471 -1.5255 -1.5816
 7971SOL    HW225355   0.113   4.468   1.194  0.1102 -0.7442  0.6987
 7972SOL     OW25356   4.214   0.853   8.843  0.2796  0.2546  0.5529
 7972SOL    HW125357   4.257   0.834   8.926  0.0352 -4.7325 -0.1640
 7972SOL    HW225358   4.282   0.842   8.777 -0.1964  1.0478 -0.0873
 7973SOL     OW25359   5.790   5.869   9.452  0.0756  0.8557 -0.3509
 7973SOL    HW125360   5.830   5.954   9.435 -0.0124  1.1214  0.6983
 7973SOL    HW225361   5.858   5.820   9.498 -0.3024  0.8087  0.1652
 7974SOL     OW25362   0.144   5.856   1.788 -0.2999  0.5826 -0.1245
 7974SOL    HW125363   0.139   5.769   1.828 -1.2341  0.8311  0.3402
 7974SOL    HW225364   0.099   5.847   1.704  1.4367  0.1256 -1.0548
 7975SOL     OW25365   0.142   3.326   9.718  0.5723  0.0239 -0.0830
 7975SOL    HW125366   0.114   3.347   9.629  1.3499  0.5391 -0.2181
 7975SOL    HW225367   0.233   3.353   9.722  0.3887  0.5779  1.0506
 7976SOL     OW25368   6.374   4.376   6.517 -0.3172  0.1268 -0.4664
 7976SOL    HW125369   6.468   4.362   6.503 -0.5885 -0.6708 -1.5387
 7976SOL    HW225370   6.333   4.351   6.435 -1.4423  0.9457 -0.1750
 7977SOL     OW25371   2.902   2.726   7.552 -0.1192  0.0402 -0.0246
 7977SOL    HW125372   2.811   2.698   7.561 -0.0606  0.2540  1.4179
 7977SOL    HW225373   2.909   2.804   7.607  1.2569 -0.7219  0.9596
 7978SOL     OW25374   5.350   6.644   9.979 -0.1460  0.4146 -0.2525
 7978SOL    HW125375   5.370   6.627   9.887  0.9720  0.6461 -0.0706
 7978SOL    HW225376   5.392   6.573  10.027  0.9629  1.3375  0.2004
 7979SOL     OW25377   3.957   2.023   8.064  0.2636  0.3478  0.0435
 7979SOL    HW125378   3.939   2.106   8.108  1.1994  0.5859 -0.0119
 7979SOL    HW225379   4.052   2.019   8.056  0.1366  0.3136 -1.9764
 7980SOL     OW25380   5.218   5.600   5.574  0.2778  0.0441  0.0044
 7980SOL    HW125381   5.287   5.545   5.538  0.7096  0.8238 -0.3793
 7980SOL    HW225382   5.139   5.546   5.568 -0.2180  0.8484 -4.3306
 7981SOL     OW25383   1.059   7.344  12.168 -0.4772 -0.1342  1.0110
 7981SOL    HW125384   0.968   7.374  12.163 -0.1400  1.1645  2.1031
 7981SOL    HW225385   1.066   7.279  12.098 -1.8875  0.6917  0.0402
 7982SOL     OW25386   1.421   6.308   3.201 -0.0000  0.8222 -0.2205
 7982SOL    HW125387   1.485   6.282   3.268  0.3952  1.1888 -0.4449
 7982SOL    HW225388   1.336   6.281   3.237  0.2786  0.3390  0.0883
 7983SOL     OW25389   5.830   3.397   0.469 -0.0896  0.2443  0.2398
 7983SOL    HW125390   5.807   3.421   0.558  0.6400  0.8299  0.2825
 7983SOL    HW225391   5.819   3.478   0.419  0.7267  0.2504  0.0504
 7984SOL     OW25392   7.729   2.277   0.506 -0.2958 -0.2477  0.0613
 7984SOL    HW125393   7.663   2.220   0.546  2.0331 -2.1319  1.4855
 7984SOL    HW225394   7.803   2.219   0.488  1.0473  1.7760 -1.3639
 7985SOL     OW25395   6.850   3.542  12.243 -0.1960 -0.4631 -0.3478
 7985SOL    HW125396   6.925   3.524  12.186 -0.1193  0.4733 -0.5548
 7985SOL    HW225397   6.828   3.457  12.280  1.0333 -0.7432 -0.2036
 7986SOL     OW25398   1.192   5.452   2.531 -0.0255 -0.3215  0.6486
 7986SOL    HW125399   1.259   5.480   2.593  2.2702  0.2556 -1.9039
 7986SOL    HW225400   1.141   5.531   2.512 -0.4499 -0.4034  1.4034
 7987SOL     OW25401   6.313   7.938   3.413 -0.1757 -0.1066  0.0081
 7987SOL    HW125402   6.352   7.993   3.345 -2.2400  0.4708 -0.7809
 7987SOL    HW225403   6.261   7.998   3.466 -0.7511 -0.9657  0.4445
 7988SOL     OW25404   0.197   2.148   0.076 -0.1225  0.4522  0.1770
 7988SOL    HW125405   0.117   2.125   0.123  0.8356 -2.2110  0.6549
 7988SOL    HW225406   0.199   2.088   0.001  2.4355 -1.1305  1.3752
 7989SOL     OW25407   7.319   3.204   0.995  0.6091 -0.4348 -0.3097
 7989SOL    HW125408   7.352   3.114   0.993  0.7774 -0.3809 -2.6569
 7989SOL    HW225409   7.371   3.247   1.063  0.1907 -2.1809  1.2172
 7990SOL     OW25410   3.866   2.262   7.112  0.1698  0.0764  0.2480
 7990SOL    HW125411   3.912   2.246   7.030  1.0194  2.0532  0.2777
 7990SOL    HW225412   3.869   2.179   7.159  2.9962 -0.1215 -0.1297
 7991SOL     OW25413   2.754   4.699   8.206 -0.2733 -0.0724 -0.7684
 7991SOL    HW125414   2.786   4.779   8.248 -0.6873 -0.3241  0.0554
 7991SOL    HW225415   2.830   4.641   8.202 -0.5818 -0.7151  1.2917
 7992SOL     OW25416   5.560   6.726   4.994 -0.7606  0.1413  0.1080
 7992SOL    HW125417   5.611   6.732   5.075  0.5524 -1.6289 -0.5362
 7992SOL    HW225418   5.477   6.688   5.022 -1.0099  1.1731  0.8583
 7993SOL     OW25419   4.707   1.085   7.075 -0.5578  0.1594 -0.2169
 7993SOL    HW125420   4.661   1.133   7.007 -0.3688  0.2552 -0.2774
 7993SOL    HW225421   4.640   1.065   7.141 -0.6802  0.3120 -0.2968
 7994SOL     OW25422   0.355   5.026   8.625 -0.1398 -0.2246 -0.1866
 7994SOL    HW125423   0.364   4.944   8.576  0.3010  0.0708 -0.6185
 7994SOL    HW225424   0.261   5.038   8.635 -0.2469 -0.1846 -1.1568
 7995SOL     OW25425   0.484   1.299   1.937  0.2442  0.1245  0.4312
 7995SOL    HW125426   0.555   1.303   1.873  0.1640 -2.1738  0.1186
 7995SOL    HW225427   0.422   1.366   1.908  0.9081  0.1423 -1.0407
 7996SOL     OW25428   0.944   0.656   2.251 -0.1641  0.0788 -0.2017
 7996SOL    HW125429   0.918   0.711   2.177  0.6064 -1.3952 -1.6304
 7996SOL    HW225430   1.032   0.686   2.273 -1.2982  2.2481  1.9011
 7997SOL     OW25431   2.584   6.378   4.654  0.5119  0.3412  0.3474
 7997SOL    HW125432   2.583   6.331   4.737  0.0197  0.4652  0.4125
 7997SOL    HW225433   2.631   6.319   4.594  1.5751  0.5956  0.9010
 7998SOL     OW25434   5.851   0.650   3.882 -0.0815 -0.3066  0.2657
 7998SOL    HW125435   5.803   0.590   3.939  1.1255 -2.1847 -0.6316
 7998SOL    HW225436   5.787   0.718   3.860 -1.1873 -0.6692  2.1076
 7999SOL     OW25437   7.255   2.937   8.728 -0.0691 -0.1758 -0.3405
 7999SOL    HW125438   7.278   3.010   8.786 -0.4388 -0.1571 -0.2188
 7999SOL    HW225439   7.316   2.946   8.654  0.1846 -0.0088 -0.1146
 8000SOL     OW25440   2.854   4.363   1.255  0.0100 -0.2929 -0.4492
 8000SOL    HW125441   2.849   4.410   1.171  1.5962 -0.3511 -0.5979
 8000SOL    HW225442   2.794   4.410   1.312 -0.3896  0.3208 -1.3411
 8001SOL     OW25443   6.605   4.539   9.317  0.0966  0.6385 -0.1426
 8001SOL    HW125444   6.578   4.457   9.358  0.3018  0.6644  0.0427
 8001SOL    HW225445   6.698   4.547   9.338  0.9479 -0.7484 -2.8843
 8002SOL     OW25446   2.021   1.610   8.272  0.1008  0.2630  0.1668
 8002SOL    HW125447   2.015   1.638   8.363 -1.2941  0.6258 -0.0144
 8002SOL    HW225448   2.077   1.676   8.231  1.9211 -0.6824  1.0257
 8003SOL     OW25449   4.979   3.305  11.930  0.2640 -0.3682  0.0381
 8003SOL    HW125450   4.944   3.218  11.951 -1.8849  0.6093  0.8376
 8003SOL    HW225451   4.999   3.301  11.837 -0.7780 -1.4342 -0.1661
 8004SOL     OW25452   2.068   2.962   0.626  0.5025  0.1095  0.3137
 8004SOL    HW125453   2.046   2.962   0.719 -0.6876  0.5499  0.0378
 8004SOL    HW225454   2.088   2.870   0.607  0.5457 -0.0215  0.9488
 8005SOL     OW25455   3.323   4.888   3.248  0.1081  0.8621  0.5963
 8005SOL    HW125456   3.378   4.946   3.300  0.0103 -0.0881  1.8324
 8005SOL    HW225457   3.234   4.911   3.273  0.0897 -0.6873  2.1781
 8006SOL     OW25458   7.261   3.330   9.750  0.2607  0.0260 -0.0709
 8006SOL    HW125459   7.258   3.252   9.806  0.3319 -0.2159 -0.4009
 8006SOL    HW225460   7.178   3.329   9.703 -0.4516  1.0436  1.1043
 8007SOL     OW25461   7.147   5.771   7.293 -0.1316  0.0862 -0.0107
 8007SOL    HW125462   7.055   5.758   7.271  0.4425  0.7479 -3.1552
 8007SOL    HW225463   7.152   5.750   7.387 -3.4984  0.3451  0.3316
 8008SOL     OW25464   6.052   6.681   8.476  0.0687 -0.4774 -0.5978
 8008SOL    HW125465   6.053   6.586   8.472  0.4072 -0.8391  3.4914
 8008SOL    HW225466   5.960   6.705   8.467 -0.3779 -1.5029  0.8051
 8009SOL     OW25467   1.029   5.417   3.737  0.3099  0.6118  0.3499
 8009SOL    HW125468   1.122   5.428   3.717  0.4915  0.3938  1.0634
 8009SOL    HW225469   1.001   5.501   3.772  0.1154  0.8320 -0.3233
 8010SOL     OW25470   0.441   7.931   1.359  0.2923 -0.4766 -0.1589
 8010SOL    HW125471   0.518   7.902   1.311 -0.9961  0.6509 -3.1557
 8010SOL    HW225472   0.449   8.027   1.361 -0.6986 -0.3871  0.0796
 8011SOL     OW25473   4.562   6.387  11.985 -0.1814  0.3164 -0.1204
 8011SOL    HW125474   4.536   6.334  12.060 -0.8477 -0.2220 -0.7158
 8011SOL    HW225475   4.503   6.359  11.914 -1.0112  2.3111 -0.2853
 8012SOL     OW25476   0.574   5.546   4.704  0.3879 -0.2047  0.2132
 8012SOL    HW125477   0.546   5.467   4.752 -0.3358 -0.0551  0.0535
 8012SOL    HW225478   0.585   5.516   4.614  1.6540 -0.4650  0.4445
 8013SOL     OW25479   1.679   6.079  11.330  0.4679 -0.2965 -0.4949
 8013SOL    HW125480   1.604   6.130  11.360  1.7186  0.1648  2.1741
 8013SOL    HW225481   1.699   6.021  11.403  0.6080 -2.9630 -2.4967
 8014SOL     OW25482   2.228   1.187   8.394  0.4631  0.0546  0.3530
 8014SOL    HW125483   2.178   1.240   8.456 -1.7567  3.5113 -3.8754
 8014SOL    HW225484   2.164   1.125   8.358  0.8903  0.0793 -0.4825
 8015SOL     OW25485   1.000   0.746   9.395 -0.3867  0.3974 -0.3152
 8015SOL    HW125486   0.935   0.811   9.366 -1.3060  0.1339  1.0402
 8015SOL    HW225487   1.071   0.798   9.431 -1.4052  0.7097  1.3621
 8016SOL     OW25488   2.499   1.767   6.100 -0.0698  0.1108 -0.2932
 8016SOL    HW125489   2.411   1.792   6.071  0.5223  1.1001 -1.3286
 8016SOL    HW225490   2.522   1.833   6.166  0.6241  1.0352 -1.4199
 8017SOL     OW25491   0.989   6.425   6.390 -0.5179  0.4668  0.2025
 8017SOL    HW125492   1.042   6.381   6.457 -1.6601 -1.3101  0.0147
 8017SOL    HW225493   0.900   6.425   6.426 -0.5788  2.7192  0.1876
 8018SOL     OW25494   1.021   1.272   8.342 -0.5356  0.2110  0.2573
 8018SOL    HW125495   1.033   1.269   8.247 -2.7290  0.9599 -0.0832
 8018SOL    HW225496   1.087   1.335   8.372  1.4617 -1.4176 -0.4803
 8019SOL     OW25497   0.676   3.388   6.386 -0.6954  0.1787 -0.0071
 8019SOL    HW125498   0.629   3.314   6.348  0.0642  0.6304 -1.9531
 8019SOL    HW225499   0.607   3.450   6.411 -1.2264  0.5470 -2.1777
 8020SOL     OW25500   5.671   5.722   9.195  0.0087 -0.5961  0.0205
 8020SOL    HW125501   5.624   5.741   9.114 -0.6899 -0.2860  0.4852
 8020SOL    HW225502   5.677   5.806   9.240 -0.6435 -0.9544  0.8147
 8021SOL     OW25503   0.886   6.779   6.881  0.0096 -0.1061  0.2479
 8021SOL    HW125504   0.806   6.820   6.915  0.7578  0.5468  1.3037
 8021SOL    HW225505   0.913   6.835   6.808 -1.0675 -0.9468 -0.8294
 8022SOL     OW25506   2.663   3.138   7.106  0.0828 -0.4710  0.3957
 8022SOL    HW125507   2.603   3.184   7.047  1.4833 -0.3258 -0.9800
 8022SOL    HW225508   2.638   3.046   7.098 -0.0486 -0.4005 -0.0808
 8023SOL     OW25509   6.390   2.550   6.067  0.1746  0.2260  0.4612
 8023SOL    HW125510   6.471   2.549   6.118  1.2106  2.0501 -1.0062
 8023SOL    HW225511   6.330   2.494   6.116  1.8107  0.0785  2.4347
 8024SOL     OW25512   4.568   3.168   2.575  0.0068  0.0357  0.4963
 8024SOL    HW125513   4.493   3.213   2.614 -0.2987  0.7054 -0.8143
 8024SOL    HW225514   4.540   3.145   2.487  0.5764 -1.7290  0.7423
 8025SOL     OW25515   4.978   5.994   4.535  0.1890  0.2838  0.4839
 8025SOL    HW125516   4.885   6.003   4.514  0.4648 -0.8354 -1.3960
 8025SOL    HW225517   4.980   5.934   4.610 -0.7659  3.6513  3.4905
 8026SOL     OW25518   4.121   1.850  10.084 -0.1429  0.4483 -0.9494
 8026SOL    HW125519   4.033   1.859  10.121 -0.3836 -2.5459 -0.5611
 8026SOL    HW225520   4.107   1.813   9.997  0.6623  2.6217 -2.0640
 8027SOL     OW25521   5.595   6.023   9.225  0.2102 -0.1405  0.4479
 8027SOL    HW125522   5.629   6.005   9.137  1.1574 -2.0725  1.1551
 8027SOL    HW225523   5.619   6.114   9.241 -0.8266  0.5723 -1.6317
 8028SOL     OW25524   6.011   4.326   0.037  0.0590 -0.0989 -0.6639
 8028SOL    HW125525   6.018   4.402   0.095 -2.5733  0.2272 -0.6453
 8028SOL    HW225526   6.101   4.308   0.010  1.1341  0.9974  1.8747
 8029SOL     OW25527   5.677   3.494   7.683 -0.2035  0.0367 -0.0107
 8029SOL    HW125528   5.605   3.442   7.647  0.5181 -0.2361 -1.0995
 8029SOL    HW225529   5.642   3.530   7.765 -0.9971 -1.4709  0.3449
 8030SOL     OW25530   7.360   6.940   5.850  0.1258 -0.1760 -0.2441
 8030SOL    HW125531   7.291   6.874   5.840 -0.3563  0.3176 -0.2023
 8030SOL    HW225532   7.434   6.892   5.889  0.4354 -1.1042 -1.8681
 8031SOL     OW25533   3.533   7.672   2.209  0.3341 -0.6870  0.2155
 8031SOL    HW125534   3.528   7.577   2.199  0.7235 -0.9001  1.6997
 8031SOL    HW225535   3.442   7.699   2.225  0.3213 -0.9267  0.5736
 8032SOL     OW25536   1.460   1.101  10.091 -0.2556 -0.3817  0.2307
 8032SOL    HW125537   1.390   1.131  10.033 -1.0797 -1.0400  0.8535
 8032SOL    HW225538   1.539   1.106  10.038 -0.6364  1.1533 -0.2402
 8033SOL     OW25539   5.218   0.658   7.388 -0.5466 -0.0395 -0.5365
 8033SOL    HW125540   5.309   0.663   7.417 -0.7188  2.2637 -0.1665
 8033SOL    HW225541   5.200   0.565   7.379  1.8410 -0.5449 -0.6275
 8034SOL     OW25542   3.824   0.778   3.603  0.3262  0.5161  0.2222
 8034SOL    HW125543   3.765   0.709   3.633 -2.6796  2.9202  0.3835
 8034SOL    HW225544   3.833   0.763   3.509  2.1914 -1.6966  0.6666
 8035SOL     OW25545   4.598   6.929   8.855 -0.3391  0.0358 -0.8925
 8035SOL    HW125546   4.631   6.897   8.772  1.0580 -1.4805  0.1711
 8035SOL    HW225547   4.675   6.964   8.900 -1.1794  1.4373 -0.4716
 8036SOL     OW25548   2.778   0.548   6.494  0.1874  0.2379 -0.1431
 8036SOL    HW125549   2.839   0.503   6.553  3.2985  2.6026 -1.2398
 8036SOL    HW225550   2.732   0.610   6.550  1.6588  1.0717  0.2110
 8037SOL     OW25551   6.880   2.027  11.815  0.4801  0.4608  0.1684
 8037SOL    HW125552   6.881   1.980  11.731  2.0202  0.1629  0.3346
 8037SOL    HW225553   6.856   1.961  11.879  0.4885  0.4111  0.1203
 8038SOL     OW25554   6.385   1.862   8.052 -0.3951  0.1396  0.1306
 8038SOL    HW125555   6.418   1.945   8.019 -2.5453  1.1077  0.2250
 8038SOL    HW225556   6.425   1.852   8.138  0.7772  0.4889 -0.3628
 8039SOL     OW25557   0.923   7.350   2.156 -0.4134 -0.0547 -0.5968
 8039SOL    HW125558   0.945   7.427   2.209 -0.0651  0.5844 -1.6439
 8039SOL    HW225559   0.946   7.276   2.212  1.0675  0.6036 -0.2863
 8040SOL     OW25560   0.932   6.894   3.874  0.0277 -0.0466 -0.2351
 8040SOL    HW125561   0.859   6.908   3.935 -0.4294  1.4567 -1.0605
 8040SOL    HW225562   0.947   6.980   3.836  0.7676 -0.8031 -1.7234
 8041SOL     OW25563   2.644   5.489   2.441  0.1998  0.0909 -0.7147
 8041SOL    HW125564   2.634   5.402   2.404 -0.1481 -0.0130 -0.3769
 8041SOL    HW225565   2.617   5.480   2.532  0.6496  0.4370 -0.5402
 8042SOL     OW25566   6.595   7.020   9.171  0.1386 -0.3817 -0.4116
 8042SOL    HW125567   6.560   7.006   9.259  1.3931 -1.0538  0.0173
 8042SOL    HW225568   6.521   7.053   9.120 -0.9948 -1.3624  0.5318
 8043SOL     OW25569   3.300   6.224   8.363  0.1850 -0.8265 -0.2126
 8043SOL    HW125570   3.223   6.268   8.399  0.1889 -0.5504 -0.5400
 8043SOL    HW225571   3.374   6.276   8.397  0.1444  0.4649 -1.9375
 8044SOL     OW25572   5.076   0.248   0.235 -0.2136  0.4310 -0.4918
 8044SOL    HW125573   5.120   0.173   0.196  0.0528  0.7841 -0.8693
 8044SOL    HW225574   5.059   0.307   0.162 -2.7962 -0.3967 -0.6547
 8045SOL     OW25575   2.823   6.326   4.231  0.3293  0.4657 -0.0113
 8045SOL    HW125576   2.916   6.332   4.207  0.2938  0.4259 -0.1603
 8045SOL    HW225577   2.806   6.408   4.277  1.3436 -1.0055  3.2635
 8046SOL     OW25578   7.443   2.922   8.497 -0.2101 -0.8608  0.1794
 8046SOL    HW125579   7.392   2.841   8.493  0.0900 -1.0314 -0.3068
 8046SOL    HW225580   7.428   2.964   8.412 -0.2527 -0.4683  0.3745
 8047SOL     OW25581   7.805   2.031   1.827 -0.1875  0.2920 -0.5284
 8047SOL    HW125582   7.715   2.025   1.795 -0.3407 -2.2485  0.1923
 8047SOL    HW225583   7.859   2.033   1.748 -0.7976 -0.0790 -0.9594
 8048SOL     OW25584   0.825   3.270   3.197 -0.1923 -0.2999 -0.0980
 8048SOL    HW125585   0.892   3.203   3.182 -0.2456 -0.4401  0.2714
 8048SOL    HW225586   0.866   3.352   3.167 -0.2085 -0.5276 -0.7523
 8049SOL     OW25587   1.662   3.318  11.401  0.9490 -0.6126  0.0502
 8049SOL    HW125588   1.724   3.370  11.453  2.4511 -1.3048 -0.9881
 8049SOL    HW225589   1.633   3.249  11.461 -0.8607  1.1520  1.3684
 8050SOL     OW25590   1.683   6.608   7.366  0.1709 -0.2354 -0.6271
 8050SOL    HW125591   1.666   6.701   7.381  0.2115 -0.0599 -1.6300
 8050SOL    HW225592   1.689   6.571   7.454 -0.7019  0.5471 -0.2170
 8051SOL     OW25593   5.349   3.099   7.567  0.4795 -0.0396 -0.0655
 8051SOL    HW125594   5.394   3.034   7.512 -1.2079 -2.0405  0.7705
 8051SOL    HW225595   5.305   3.046   7.634  1.3059  2.1811  2.4118
 8052SOL     OW25596   4.999   7.045   1.009 -0.2498  0.4995 -0.1472
 8052SOL    HW125597   5.057   6.980   0.970 -2.0749 -1.3852  0.1720
 8052SOL    HW225598   4.926   7.053   0.948 -0.0477  2.3779 -0.2292
 8053SOL     OW25599   0.475   7.802   8.585  0.4261  0.0211 -0.1026
 8053SOL    HW125600   0.553   7.784   8.534  0.5483 -0.6241  0.2931
 8053SOL    HW225601   0.508   7.838   8.667  0.2976  0.0137 -0.0471
 8054SOL     OW25602   1.580   3.912   9.092  0.6008  0.1366  0.3372
 8054SOL    HW125603   1.530   3.900   9.173 -0.4720 -0.1822 -0.3504
 8054SOL    HW225604   1.563   3.832   9.042 -0.4594  1.1927 -1.0762
 8055SOL     OW25605   0.109   2.126   7.950  0.6619  0.1787 -0.3582
 8055SOL    HW125606   0.147   2.139   8.037 -0.9500  0.5568  0.3271
 8055SOL    HW225607   0.112   2.212   7.909  1.8478 -0.0926 -0.8911
 8056SOL     OW25608   3.159   4.573   5.531  0.0666  0.1101 -0.2944
 8056SOL    HW125609   3.148   4.558   5.625  0.0196  4.6221  0.6510
 8056SOL    HW225610   3.254   4.575   5.518  0.1112  0.9727  0.0529
 8057SOL     OW25611   6.476   3.007  11.855 -1.5787  0.4809 -0.0452
 8057SOL    HW125612   6.426   3.084  11.883 -2.3077  0.1271 -0.3315
 8057SOL    HW225613   6.430   2.976  11.777 -0.7250  0.3086 -0.4910
 8058SOL     OW25614   6.362   1.611   2.424 -0.3078 -0.0259 -0.7137
 8058SOL    HW125615   6.376   1.556   2.347  0.9063  0.9304 -1.2118
 8058SOL    HW225616   6.450   1.642   2.447 -0.6258 -0.3883  1.1535
 8059SOL     OW25617   4.022   7.259   6.318  0.2057 -0.2207  0.3164
 8059SOL    HW125618   4.004   7.193   6.385  1.8443 -2.3131 -1.1921
 8059SOL    HW225619   4.097   7.307   6.352 -0.8015  0.7411  1.2796
 8060SOL     OW25620   3.001   4.891  12.336 -0.4653  0.3913 -0.4987
 8060SOL    HW125621   2.996   4.940  12.418 -1.5003 -1.3348  0.5380
 8060SOL    HW225622   3.010   4.800  12.364  2.7220  0.0116 -2.3496
 8061SOL     OW25623   7.935   0.254   5.329  0.1592 -0.2066 -0.0339
 8061SOL    HW125624   7.909   0.224   5.416  0.0027 -0.3136 -0.1171
 8061SOL    HW225625   7.871   0.322   5.307  0.4221  0.0816  0.0910
 8062SOL     OW25626   7.839   2.287   6.175  0.1132 -0.1270 -0.2833
 8062SOL    HW125627   7.769   2.335   6.221  1.2252  1.4327 -0.1342
 8062SOL    HW225628   7.832   2.317   6.085  1.3089  0.9984 -0.0403
 8063SOL     OW25629   2.282   2.548   4.127  0.5516 -0.0435  0.0742
 8063SOL    HW125630   2.206   2.606   4.130  0.7144  0.2952 -1.2439
 8063SOL    HW225631   2.296   2.521   4.217 -1.9439 -1.1980  0.1966
 8064SOL     OW25632   1.623   4.912   2.134 -0.1565 -0.0350 -0.1388
 8064SOL    HW125633   1.629   4.938   2.226  0.0573  0.0067 -0.1637
 8064SOL    HW225634   1.631   4.994   2.086  2.3881 -0.2754 -0.2886
 8065SOL     OW25635   1.569   4.694   9.657  0.4139  0.0406 -0.5279
 8065SOL    HW125636   1.629   4.634   9.612 -0.4471 -1.3277  0.1069
 8065SOL    HW225637   1.496   4.705   9.596  0.0551 -0.4491 -0.1953
 8066SOL     OW25638   3.256   5.348   7.988 -0.5990 -0.5264 -0.0667
 8066SOL    HW125639   3.298   5.262   7.993  0.0501 -0.3066 -1.4254
 8066SOL    HW225640   3.327   5.408   7.968 -0.5675  0.7859  3.2757
 8067SOL     OW25641   4.403   5.434   8.912  0.0353 -0.0911 -0.0436
 8067SOL    HW125642   4.359   5.404   8.833  1.1772 -0.4214 -0.5838
 8067SOL    HW225643   4.357   5.391   8.984  0.1858 -1.3390 -0.6634
 8068SOL     OW25644   1.730   1.160   8.163 -0.5251 -0.8168 -0.4277
 8068SOL    HW125645   1.774   1.103   8.227  0.6503 -0.4978 -0.9158
 8068SOL    HW225646   1.762   1.128   8.078  0.4163  0.7439 -0.6952
 8069SOL     OW25647   6.315   2.813   1.766  0.1801  0.3226  0.4220
 8069SOL    HW125648   6.378   2.885   1.760  0.7389 -0.0187  1.7503
 8069SOL    HW225649   6.354   2.752   1.828 -0.0646 -1.3777 -1.0215
 8070SOL     OW25650   1.783   1.571   5.453 -0.2434  0.2687  0.3164
 8070SOL    HW125651   1.737   1.490   5.430  0.4238 -0.1342  0.3688
 8070SOL    HW225652   1.826   1.598   5.372  0.5290 -0.0955  0.6007
 8071SOL     OW25653   2.318   0.564   3.292  0.0007  0.9253 -0.3988
 8071SOL    HW125654   2.368   0.517   3.225 -0.6896  1.0472 -1.0194
 8071SOL    HW225655   2.227   0.539   3.275 -0.1232  0.3250  1.0139
 8072SOL     OW25656   6.524   0.896  10.514 -0.1144 -0.3297  0.4358
 8072SOL    HW125657   6.511   0.981  10.472 -1.2166  0.4744  2.2831
 8072SOL    HW225658   6.438   0.873  10.550  0.5726 -1.3575  1.5076
 8073SOL     OW25659   1.909   1.231  10.366  0.3720  0.3523  0.3592
 8073SOL    HW125660   1.859   1.181  10.430  1.8908  0.4450  1.6727
 8073SOL    HW225661   1.888   1.323  10.385 -1.2351  0.3378 -1.0684
 8074SOL     OW25662   0.148   0.295  11.217 -0.2093 -0.3034 -0.1161
 8074SOL    HW125663   0.168   0.307  11.125  0.1808 -0.7270 -0.0907
 8074SOL    HW225664   0.119   0.381  11.247  0.6392  0.0939 -0.3910
 8075SOL     OW25665   5.137   4.968  12.312 -0.2830 -0.2860  0.1770
 8075SOL    HW125666   5.042   4.966  12.304 -0.2749 -1.5854  0.1345
 8075SOL    HW225667   5.166   4.883  12.277  0.9747  0.4792 -0.7293
 8076SOL     OW25668   3.036   6.346   1.194  0.4210 -0.1227 -0.2182
 8076SOL    HW125669   2.971   6.405   1.231  0.2263 -0.5841  0.1866
 8076SOL    HW225670   3.111   6.401   1.176  0.4316  0.1592  0.6500
 8077SOL     OW25671   1.600   0.653   6.602  0.3427 -0.4903  0.1510
 8077SOL    HW125672   1.547   0.627   6.678 -0.0396  0.1475  0.1133
 8077SOL    HW225673   1.572   0.595   6.532 -0.2080 -0.2527  0.1701
 8078SOL     OW25674   6.342   4.641   9.738 -0.0524  0.0815 -0.4153
 8078SOL    HW125675   6.340   4.546   9.734 -1.3200  0.0835 -0.3371
 8078SOL    HW225676   6.285   4.670   9.667 -1.9273  0.6818  1.2156
 8079SOL     OW25677   1.707   7.213   7.455  0.5308 -0.0381 -0.1130
 8079SOL    HW125678   1.734   7.276   7.521 -0.4798 -0.7306  0.9974
 8079SOL    HW225679   1.618   7.188   7.480  0.2447 -0.5697 -1.5487
 8080SOL     OW25680   2.803   3.012   2.312  0.3263 -0.3398  0.4379
 8080SOL    HW125681   2.804   3.003   2.407 -1.6524  0.8793  0.6416
 8080SOL    HW225682   2.722   2.968   2.285 -0.9922  2.3084 -0.2350
 8081SOL     OW25683   4.105   3.540  12.371  0.3650  0.1334  0.8703
 8081SOL    HW125684   4.093   3.501  12.284  0.6725  1.5877  0.1523
 8081SOL    HW225685   4.197   3.527  12.390 -0.2166 -2.7862  2.3283
 8082SOL     OW25686   2.527   0.924   1.274 -0.2194  0.2192 -0.3978
 8082SOL    HW125687   2.479   0.988   1.326  0.5034  0.7380 -0.3521
 8082SOL    HW225688   2.462   0.889   1.213 -0.6163  1.0143 -0.4453
 8083SOL     OW25689   1.132   1.866   2.381  0.1184  0.0131  0.0571
 8083SOL    HW125690   1.214   1.819   2.398 -1.1521 -2.9637 -1.2866
 8083SOL    HW225691   1.153   1.924   2.308  1.1297 -0.4914 -0.0744
 8084SOL     OW25692   2.780   4.689   7.718  0.1817  0.4430  0.2380
 8084SOL    HW125693   2.713   4.731   7.772 -1.2744  0.4336 -1.4557
 8084SOL    HW225694   2.844   4.757   7.701  1.2461  0.1722  2.7594
 8085SOL     OW25695   6.970   6.525   1.320  0.3663  0.1119  0.8898
 8085SOL    HW125696   7.012   6.558   1.241  2.4507 -0.0068  1.8980
 8085SOL    HW225697   6.981   6.595   1.385 -1.2040  0.1605  1.1529
 8086SOL     OW25698   5.870   5.433   0.833  0.0481  0.2077  0.4453
 8086SOL    HW125699   5.823   5.423   0.915  0.5158 -0.2507  0.6698
 8086SOL    HW225700   5.905   5.345   0.815  1.1478  0.6123  0.5041
 8087SOL     OW25701   2.020   7.305   4.600  0.2862 -0.1872  0.0057
 8087SOL    HW125702   1.997   7.320   4.691  0.2021 -1.4365  0.2179
 8087SOL    HW225703   2.021   7.392   4.560 -0.4840  0.2978  1.0003
 8088SOL     OW25704   2.089   0.686  11.880 -0.4713 -0.3257  1.0231
 8088SOL    HW125705   2.085   0.737  11.800 -2.0372 -2.0322 -0.0583
 8088SOL    HW225706   2.161   0.624  11.865 -0.8924 -0.7737  0.8647
 8089SOL     OW25707   5.327   3.169   6.089  0.1945  0.9712 -0.6648
 8089SOL    HW125708   5.336   3.258   6.123 -0.4881  1.2452 -1.1883
 8089SOL    HW225709   5.368   3.114   6.156 -1.5432  1.4510  0.8795
 8090SOL     OW25710   4.310   3.522   5.570  0.5713 -0.1941 -0.3707
 8090SOL    HW125711   4.334   3.430   5.582  0.7358 -0.2045 -0.7565
 8090SOL    HW225712   4.379   3.571   5.616  1.0198 -0.2406 -0.9861
 8091SOL     OW25713   6.170   4.837   2.157 -0.5533 -0.7518  0.0851
 8091SOL    HW125714   6.183   4.757   2.207 -3.4183 -1.3430  0.0234
 8091SOL    HW225715   6.198   4.815   2.068  0.8916 -0.8925  0.5441
 8092SOL     OW25716   2.728   2.722   6.416 -0.2697 -0.0538 -0.0606
 8092SOL    HW125717   2.648   2.756   6.456 -0.7231 -1.1102 -0.0191
 8092SOL    HW225718   2.796   2.785   6.440 -1.4300  2.0146 -1.8217
 8093SOL     OW25719   7.208   2.143   7.374  0.1461 -0.0922  0.1180
 8093SOL    HW125720   7.197   2.236   7.356  0.9014  0.0670  0.4302
 8093SOL    HW225721   7.120   2.112   7.396 -0.3305  0.2804 -1.1666
 8094SOL     OW25722   7.948   3.038   0.724  0.2113 -0.0633  0.0098
 8094SOL    HW125723   7.928   3.029   0.631 -2.4428 -0.7048  0.5638
 8094SOL    HW225724   7.908   3.121   0.750  1.0426  0.1743  0.5762
 8095SOL     OW25725   3.521   1.063   6.347  0.1222  0.4061  0.1515
 8095SOL    HW125726   3.434   1.101   6.336  0.2427  0.9315  0.9078
 8095SOL    HW225727   3.569   1.128   6.398  0.8035 -0.0986  0.1660
 8096SOL     OW25728   1.498   2.485   4.144  0.1004 -0.0572 -0.0009
 8096SOL    HW125729   1.552   2.445   4.211  0.0630 -0.0051  0.0610
 8096SOL    HW225730   1.533   2.574   4.134  0.9231 -0.4777 -0.9652
 8097SOL     OW25731   5.493   1.070   6.140 -0.1619  0.1153 -0.0635
 8097SOL    HW125732   5.514   1.161   6.115 -0.3722  0.1888  0.0284
 8097SOL    HW225733   5.488   1.072   6.235 -0.8041  0.1475 -0.0920
 8098SOL     OW25734   7.784   3.020   7.864  0.6362  0.8691  0.4131
 8098SOL    HW125735   7.821   2.946   7.914  1.5396  1.1075  0.1290
 8098SOL    HW225736   7.698   2.990   7.836  0.6272  0.2602  1.0543
 8099SOL     OW25737   0.973   7.561   0.558 -0.2687 -0.7085 -0.1133
 8099SOL    HW125738   1.043   7.562   0.623 -0.2145  0.3909 -0.1720
 8099SOL    HW225739   1.017   7.549   0.474  0.0597  1.4933 -0.3318
 8100SOL     OW25740   0.216   1.511   9.649 -0.0034  0.7955 -0.0023
 8100SOL    HW125741   0.233   1.426   9.608  1.8044  0.0681  2.0699
 8100SOL    HW225742   0.181   1.489   9.736  0.9508  2.1290  0.7493
 8101SOL     OW25743   5.353   2.461   8.322  0.5433  0.4265 -0.1666
 8101SOL    HW125744   5.422   2.517   8.287 -0.7496  1.6012 -0.9544
 8101SOL    HW225745   5.326   2.407   8.248  0.3455  0.2556  0.0275
 8102SOL     OW25746   4.850   2.944   3.233  0.4292 -0.1160  0.1446
 8102SOL    HW125747   4.823   3.004   3.164  0.8008  0.6753  0.6616
 8102SOL    HW225748   4.797   2.970   3.309  1.0732  0.0025  0.5590
 8103SOL     OW25749   4.691   2.997   7.526 -0.1005 -0.1185  0.3951
 8103SOL    HW125750   4.645   3.037   7.451 -0.6330  0.4978  1.0352
 8103SOL    HW225751   4.784   3.008   7.505 -0.2425  0.5005  0.0522
 8104SOL     OW25752   0.689   1.869  10.676 -0.6793 -0.5647 -0.3340
 8104SOL    HW125753   0.650   1.923  10.608 -1.5712 -1.8741 -0.9045
 8104SOL    HW225754   0.688   1.924  10.754 -0.3774  0.6733 -1.1729
 8105SOL     OW25755   4.510   2.450  12.103 -0.1499 -0.3997  0.3187
 8105SOL    HW125756   4.593   2.483  12.139 -0.1097 -0.6662  0.4725
 8105SOL    HW225757   4.458   2.528  12.086 -0.4276 -0.2970  1.5754
 8106SOL     OW25758   3.069   5.765   1.077 -0.3588 -0.2335  0.2232
 8106SOL    HW125759   3.025   5.836   1.032 -1.3228 -1.4436 -0.8068
 8106SOL    HW225760   3.160   5.771   1.048 -0.5868  0.1168 -0.4450
 8107SOL     OW25761   1.109   6.477   4.113 -0.1500 -0.5756  0.4222
 8107SOL    HW125762   1.156   6.526   4.181  0.1795  0.4581 -0.5252
 8107SOL    HW225763   1.020   6.470   4.146  0.2667 -1.1111  1.4831
 8108SOL     OW25764   1.938   0.071   6.960  0.1758 -0.1276  1.0674
 8108SOL    HW125765   1.900   0.056   6.873  1.1200  1.1782  0.4003
 8108SOL    HW225766   1.873   0.034   7.020 -1.5446  0.8329 -0.0885
 8109SOL     OW25767   1.585   0.436   4.145 -0.1999  0.0890 -0.0202
 8109SOL    HW125768   1.505   0.412   4.099  0.8370 -1.2446 -1.2075
 8109SOL    HW225769   1.609   0.358   4.194  0.3757  0.4809  0.3409
 8110SOL     OW25770   0.230   6.782  11.356  0.0203  0.0769  0.6325
 8110SOL    HW125771   0.243   6.700  11.308  1.4213  0.0508  1.0156
 8110SOL    HW225772   0.287   6.845  11.313 -0.8427  0.7929  0.5112
 8111SOL     OW25773   4.465   4.366   9.248  0.1244 -0.2338 -0.0154
 8111SOL    HW125774   4.518   4.385   9.171  1.1579  0.0606  0.7468
 8111SOL    HW225775   4.459   4.270   9.249  1.8971 -0.3809  0.6669
 8112SOL     OW25776   6.412   1.495   5.530  0.8543  0.3456 -0.3660
 8112SOL    HW125777   6.383   1.537   5.611 -0.5905 -0.3504 -0.4817
 8112SOL    HW225778   6.471   1.426   5.559 -0.0836 -0.2627  0.1706
 8113SOL     OW25779   6.913   0.513   1.263  0.1306  0.2797 -0.0880
 8113SOL    HW125780   6.834   0.500   1.210  0.7645  0.6235 -1.1390
 8113SOL    HW225781   6.984   0.522   1.199  0.8544  1.1415  0.8004
 8114SOL     OW25782   3.172   1.898   5.899  0.0866  0.1776 -0.3648
 8114SOL    HW125783   3.110   1.882   5.970  0.3422 -1.4643 -0.4647
 8114SOL    HW225784   3.127   1.958   5.840 -1.5557 -1.1856 -0.5790
 8115SOL     OW25785   0.338   7.365   9.543 -0.0348 -0.6634  0.3697
 8115SOL    HW125786   0.377   7.341   9.459  0.5391  0.4911  0.2811
 8115SOL    HW225787   0.289   7.446   9.524 -0.0348 -0.4825  1.1039
 8116SOL     OW25788   7.452   4.470   4.308  0.4409 -0.6320 -0.2681
 8116SOL    HW125789   7.429   4.554   4.270  0.0098 -0.1935  0.9140
 8116SOL    HW225790   7.515   4.432   4.247 -0.3459 -0.0437 -1.4858
 8117SOL     OW25791   4.835   4.985   4.317  0.1918  0.5850  1.0392
 8117SOL    HW125792   4.918   4.949   4.284 -0.5737  1.6518 -2.4976
 8117SOL    HW225793   4.786   4.909   4.348  1.1236 -0.5458 -0.1785
 8118SOL     OW25794   0.305   2.847  11.533  0.6528 -0.3656  0.5045
 8118SOL    HW125795   0.328   2.851  11.626 -1.1324  0.4219  0.9511
 8118SOL    HW225796   0.243   2.918  11.520 -0.3210 -1.4205 -0.9394
 8119SOL     OW25797   4.847   0.151   8.661  0.0317 -0.2117 -0.3825
 8119SOL    HW125798   4.763   0.111   8.639 -0.3459  0.7440 -0.6837
 8119SOL    HW225799   4.866   0.117   8.749  0.1828 -1.7877 -0.9811
 8120SOL     OW25800   4.850   4.278  11.773  0.2672  0.4045 -0.1481
 8120SOL    HW125801   4.929   4.315  11.813  0.3465  0.2728 -0.1825
 8120SOL    HW225802   4.834   4.333  11.696 -0.1908  0.9925  0.3536
 8121SOL     OW25803   7.199   2.705   5.867  0.1763 -0.0100 -0.2258
 8121SOL    HW125804   7.172   2.797   5.862 -1.1615 -0.2328  1.8050
 8121SOL    HW225805   7.277   2.706   5.922  1.2423  0.0501 -1.6732
 8122SOL     OW25806   3.167   4.865  12.094 -0.0346 -0.3306  0.0708
 8122SOL    HW125807   3.142   4.871  12.187 -0.0045  1.1477  0.0045
 8122SOL    HW225808   3.228   4.937  12.081  0.1669 -0.6884 -1.0452
 8123SOL     OW25809   0.103   7.847  12.382 -0.4950  0.2898  0.7641
 8123SOL    HW125810   0.040   7.918  12.371 -1.4269 -0.6021  0.2210
 8123SOL    HW225811   0.098   7.798  12.300  0.8591  0.1479  0.7374
 8124SOL     OW25812   2.183   1.068   2.580 -0.1968  0.3033 -0.3053
 8124SOL    HW125813   2.239   1.136   2.543  0.0012 -0.7574 -2.1164
 8124SOL    HW225814   2.117   1.053   2.512 -0.0674 -1.4819 -0.0837
 8125SOL     OW25815   2.015   5.348   0.319 -0.3062  0.2644  0.2901
 8125SOL    HW125816   2.102   5.343   0.358 -0.1593 -0.4933 -0.1183
 8125SOL    HW225817   1.990   5.440   0.327  0.9773  0.6985 -0.5811
 8126SOL     OW25818   0.213   7.569   0.311  0.4353 -0.3040  0.5653
 8126SOL    HW125819   0.213   7.636   0.243  0.0429  0.9625  1.7703
 8126SOL    HW225820   0.123   7.536   0.312  0.6277 -0.8540 -0.0257
 8127SOL     OW25821   7.946   6.429   7.942 -0.6486  0.0870 -0.5580
 8127SOL    HW125822   7.947   6.383   7.858  0.0009 -0.9706  0.0078
 8127SOL    HW225823   7.865   6.481   7.939  0.0426  1.1641 -2.3820
 8128SOL     OW25824   2.687   0.944   9.347 -0.3388 -0.0786 -0.3756
 8128SOL    HW125825   2.775   0.914   9.322  0.9092  1.0952  2.1633
 8128SOL    HW225826   2.636   0.940   9.266  2.1276 -0.5086 -2.0238
 8129SOL     OW25827   6.576   4.200   1.203  0.0308  0.1256 -0.0468
 8129SOL    HW125828   6.612   4.288   1.216 -0.8708  0.5662 -0.4816
 8129SOL    HW225829   6.494   4.199   1.252 -0.2710 -0.2647 -0.5455
 8130SOL     OW25830   7.921   0.491   4.637  0.3361 -0.1401  0.1337
 8130SOL    HW125831   7.881   0.475   4.552  0.1257  0.7643  0.0545
 8130SOL    HW225832   7.961   0.407   4.661 -0.0038 -0.5299 -0.6357
 8131SOL     OW25833   2.099   7.179   2.928  0.4289 -0.0504 -0.0979
 8131SOL    HW125834   2.145   7.099   2.954 -0.0887 -0.3235 -0.0054
 8131SOL    HW225835   2.169   7.243   2.911  0.8124  0.0632  1.6816
 8132SOL     OW25836   2.503   4.860   6.804  0.3778  0.0936 -0.3914
 8132SOL    HW125837   2.569   4.903   6.748  0.9554  0.7046  0.7233
 8132SOL    HW225838   2.452   4.933   6.840 -0.2515 -0.3213 -0.4320
 8133SOL     OW25839   1.003   5.127  11.939 -0.0992  0.3858 -0.5525
 8133SOL    HW125840   0.920   5.175  11.928 -1.1206 -1.1640  0.0947
 8133SOL    HW225841   1.032   5.110  11.850 -1.4152 -0.5760 -0.8324
 8134SOL     OW25842   6.644   0.415   7.201  0.3070  0.6434  0.7234
 8134SOL    HW125843   6.633   0.507   7.225 -0.8194  0.2640  1.7594
 8134SOL    HW225844   6.580   0.400   7.132 -0.2841  0.3717  1.3234
 8135SOL     OW25845   7.665   5.833  11.066  0.5205 -0.0348  0.5696
 8135SOL    HW125846   7.707   5.918  11.061 -0.5180  0.4232 -1.7772
 8135SOL    HW225847   7.733   5.774  11.098  2.5217  0.9457 -1.5607
 8136SOL     OW25848   3.978   6.172   3.478 -0.2721 -0.2636 -0.6196
 8136SOL    HW125849   4.037   6.098   3.461 -0.4635 -0.2994 -1.1485
 8136SOL    HW225850   4.035   6.249   3.471  0.1069 -0.3927  0.7654
 8137SOL     OW25851   7.540   0.454   1.642  0.2641  0.0436 -0.1899
 8137SOL    HW125852   7.523   0.360   1.648  0.4594 -0.0126 -0.5309
 8137SOL    HW225853   7.453   0.494   1.647  0.0918 -0.2066 -1.1029
 8138SOL     OW25854   3.211   1.569   8.122 -0.0896  0.0530  0.2809
 8138SOL    HW125855   3.250   1.559   8.209  1.4012 -0.9473 -0.4566
 8138SOL    HW225856   3.272   1.524   8.063 -1.5873 -0.1941 -1.1564
 8139SOL     OW25857   7.832   3.204   5.544 -0.5762  0.2040  0.1213
 8139SOL    HW125858   7.902   3.164   5.493 -1.1601  1.2233 -1.5772
 8139SOL    HW225859   7.760   3.214   5.481 -1.2890  1.6282  1.1099
 8140SOL     OW25860   0.999   6.345   6.718 -0.0905  0.1338  0.2215
 8140SOL    HW125861   0.952   6.422   6.751 -0.4001  0.4974 -1.0063
 8140SOL    HW225862   0.934   6.274   6.724 -0.2615  0.2750  0.0762
 8141SOL     OW25863   2.452   0.885  11.456 -0.0759 -0.0228  0.1753
 8141SOL    HW125864   2.434   0.977  11.435  0.4498  0.4109  1.5166
 8141SOL    HW225865   2.448   0.882  11.551  1.1403 -1.1434  0.2050
 8142SOL     OW25866   5.109   6.171   7.953  0.5809  0.1823 -0.5553
 8142SOL    HW125867   5.129   6.156   7.861  2.0802 -2.6176  0.1119
 8142SOL    HW225868   5.158   6.250   7.975 -0.6783  1.5367 -2.3584
 8143SOL     OW25869   2.487   3.207   6.909  0.1932  0.2973  0.2498
 8143SOL    HW125870   2.440   3.196   6.826  1.1833 -2.0174 -0.0741
 8143SOL    HW225871   2.421   3.243   6.969 -0.9945  0.4333 -1.0781
 8144SOL     OW25872   0.366   3.996   5.249 -0.1340  0.4225  0.0028
 8144SOL    HW125873   0.415   3.947   5.183  1.2140  0.9328  0.5889
 8144SOL    HW225874   0.416   4.077   5.261 -0.9193  0.7970  0.9167
 8145SOL     OW25875   7.409   2.184  12.309 -0.0297  0.2198  0.3782
 8145SOL    HW125876   7.502   2.177  12.329 -0.1662  0.2116  1.0536
 8145SOL    HW225877   7.388   2.102  12.265  0.0517 -0.2812  1.2422
 8146SOL     OW25878   7.520   3.457   8.016 -0.3460 -0.3632 -0.6317
 8146SOL    HW125879   7.610   3.445   8.047 -0.5736  2.0957  1.2542
 8146SOL    HW225880   7.487   3.368   8.004  0.4980 -1.6194  4.2986
 8147SOL     OW25881   0.869   0.741  11.732 -0.2754 -0.5520  0.2324
 8147SOL    HW125882   0.880   0.659  11.780 -0.3920 -0.6510  0.0926
 8147SOL    HW225883   0.779   0.768  11.752 -0.7835 -1.2667 -0.9502
 8148SOL     OW25884   1.186   0.066   5.740  0.2536  0.2672  0.4179
 8148SOL    HW125885   1.117  -0.000   5.729  2.7156 -2.4600  0.2547
 8148SOL    HW225886   1.195   0.105   5.653 -1.2345  0.9460  0.5207
 8149SOL     OW25887   0.822   4.152   1.876 -0.5940  0.4521 -0.0440
 8149SOL    HW125888   0.843   4.170   1.785 -0.5564  0.4129 -0.0429
 8149SOL    HW225889   0.907   4.140   1.919 -0.6230 -2.2911 -0.5538
 8150SOL     OW25890   0.490   5.482  12.188 -0.9032 -0.2195 -0.2545
 8150SOL    HW125891   0.422   5.529  12.236 -0.2836 -0.1348  0.5615
 8150SOL    HW225892   0.542   5.439  12.256 -1.6495 -2.3939 -0.9785
 8151SOL     OW25893   0.003   3.497   6.780 -0.9297  0.0817  0.2307
 8151SOL    HW125894   0.030   3.574   6.830 -0.0164 -0.8557  1.2204
 8151SOL    HW225895   0.002   3.527   6.689  1.3643  0.7544  0.3684
 8152SOL     OW25896   6.007   5.597   8.710  0.1557 -0.5859 -0.4154
 8152SOL    HW125897   6.086   5.614   8.659 -0.6944  0.3998 -1.4769
 8152SOL    HW225898   5.990   5.504   8.697  0.9926 -0.7498 -0.3848
 8153SOL     OW25899   5.673   3.366   0.109  0.3956 -0.2600 -0.8319
 8153SOL    HW125900   5.628   3.345   0.028  1.7485  2.2144 -2.3709
 8153SOL    HW225901   5.717   3.449   0.091  0.7534  0.4175  2.4561
 8154SOL     OW25902   0.362   3.108   0.384  0.6058 -0.1125 -0.5268
 8154SOL    HW125903   0.297   3.101   0.315  0.3928 -1.4898 -0.2195
 8154SOL    HW225904   0.318   3.154   0.455  0.1026 -0.6289 -0.4963
 8155SOL     OW25905   4.587   1.632   3.326  0.3552  0.4967 -0.2716
 8155SOL    HW125906   4.628   1.709   3.288 -1.5823  0.7207 -2.1038
 8155SOL    HW225907   4.516   1.667   3.380  0.6512  0.0473  0.4150
 8156SOL     OW25908   3.267   6.220  12.246 -0.1832  0.0888 -0.9072
 8156SOL    HW125909   3.287   6.130  12.222 -0.5455 -0.0386 -0.7460
 8156SOL    HW225910   3.203   6.249  12.180  1.1628  0.7840 -1.9415
 8157SOL     OW25911   3.052   1.336   1.590  0.5794 -0.6256 -0.0247
 8157SOL    HW125912   3.052   1.425   1.625 -0.6124 -0.0511 -1.3418
 8157SOL    HW225913   3.142   1.321   1.563  0.5429  0.7954 -1.1291
 8158SOL     OW25914   5.292   0.356   4.737  0.3378  0.2821 -0.1291
 8158SOL    HW125915   5.277   0.446   4.710 -1.3156 -0.0795 -0.5394
 8158SOL    HW225916   5.329   0.313   4.659  1.7894  0.7350  0.2810
 8159SOL     OW25917   2.529   2.049   4.502 -0.2242  0.0361 -0.4341
 8159SOL    HW125918   2.623   2.034   4.492 -0.1376  0.8326 -0.8709
 8159SOL    HW225919   2.516   2.053   4.597  0.2655  0.4256 -0.3768
 8160SOL     OW25920   2.329   6.170   0.432  0.0144  0.0491  0.4725
 8160SOL    HW125921   2.416   6.146   0.402 -0.0768  0.6047 -0.2603
 8160SOL    HW225922   2.336   6.262   0.457 -0.5417  0.3224 -0.3432
 8161SOL     OW25923   6.186   2.758   7.174 -0.2385 -0.5997 -0.7083
 8161SOL    HW125924   6.121   2.756   7.104 -2.4735 -2.0264  1.2547
 8161SOL    HW225925   6.226   2.844   7.168 -2.6267  0.5240 -1.7755
 8162SOL     OW25926   7.506   1.977   2.686  0.8142  0.5712  0.1020
 8162SOL    HW125927   7.451   2.044   2.646  1.6032  1.7963  1.0008
 8162SOL    HW225928   7.586   1.975   2.633 -0.0918 -1.3685 -1.3419
 8163SOL     OW25929   0.865   0.136  10.291 -0.1549 -0.1569  0.0646
 8163SOL    HW125930   0.776   0.109  10.314 -0.5958  0.8873 -0.3190
 8163SOL    HW225931   0.858   0.231  10.280  0.8194 -0.1747 -0.8357
 8164SOL     OW25932   7.838   2.140   2.787  0.4598 -0.0080  0.0895
 8164SOL    HW125933   7.817   2.101   2.702 -1.4598 -0.5519  0.7526
 8164SOL    HW225934   7.780   2.094   2.849  0.2022  1.8951  1.3418
 8165SOL     OW25935   2.810   4.881   8.446 -0.3829 -0.0430 -0.2095
 8165SOL    HW125936   2.866   4.925   8.510  0.3019  0.5858 -1.1988
 8165SOL    HW225937   2.780   4.952   8.388 -1.6032 -0.4821 -0.1426
 8166SOL     OW25938   3.283   1.395  11.888  0.2392 -0.2219 -0.0197
 8166SOL    HW125939   3.334   1.476  11.899  0.0154  0.1412 -1.4588
 8166SOL    HW225940   3.317   1.356  11.808 -1.2649 -0.3287 -0.6335
 8167SOL     OW25941   5.449   6.505   8.093  0.4851  0.3517  0.7964
 8167SOL    HW125942   5.481   6.468   8.011 -1.2621 -0.1398  0.2917
 8167SOL    HW225943   5.514   6.479   8.158  1.3131 -0.2236 -0.2422
 8168SOL     OW25944   6.655   5.289  12.024  0.0428  0.6588 -0.3701
 8168SOL    HW125945   6.694   5.271  12.109  0.3960 -0.1329 -0.6850
 8168SOL    HW225946   6.649   5.203  11.982  0.4812  1.1112 -1.3981
 8169SOL     OW25947   7.581   1.026  12.080 -0.1795  0.1211  0.4832
 8169SOL    HW125948   7.581   1.074  11.997  0.4709 -1.5093 -0.4927
 8169SOL    HW225949   7.662   1.053  12.124  0.4094 -0.4270 -0.2630
 8170SOL     OW25950   4.646   1.222   5.544  0.4504 -0.4933 -0.3737
 8170SOL    HW125951   4.689   1.215   5.458 -0.5302  0.3339 -0.9529
 8170SOL    HW225952   4.615   1.312   5.548 -2.5654 -1.3998 -0.6729
 8171SOL     OW25953   2.448   3.371  11.361  0.4932  0.0062 -0.0826
 8171SOL    HW125954   2.452   3.347  11.269 -0.0527 -2.9646  0.5794
 8171SOL    HW225955   2.387   3.309  11.401  2.6363 -0.5355  2.7329
 8172SOL     OW25956   5.989   1.279   0.406 -0.6657 -0.0238  0.3891
 8172SOL    HW125957   6.017   1.333   0.333  1.0158  1.1954  1.8441
 8172SOL    HW225958   6.051   1.206   0.409 -1.2792 -0.5680  0.0697
 8173SOL     OW25959   2.922   3.670   4.191  0.2689  0.0789  0.0655
 8173SOL    HW125960   2.845   3.723   4.213  1.2839  1.1008  1.3755
 8173SOL    HW225961   2.956   3.709   4.111 -0.5954 -0.4547 -0.5948
 8174SOL     OW25962   4.744   1.777   7.374  0.2336  0.2489  0.1606
 8174SOL    HW125963   4.739   1.860   7.420  0.1049 -0.3458  1.2640
 8174SOL    HW225964   4.827   1.780   7.327  1.3691  0.1020  2.0580
 8175SOL     OW25965   3.844   2.394   8.628  0.0783 -0.1133  0.4318
 8175SOL    HW125966   3.869   2.430   8.543  0.4759  3.1539  1.7632
 8175SOL    HW225967   3.750   2.414   8.636 -0.1625 -1.1908  0.4360
 8176SOL     OW25968   2.673   5.597   5.209  0.1815 -0.0570  0.4210
 8176SOL    HW125969   2.586   5.559   5.223  0.2622 -0.0551  0.9421
 8176SOL    HW225970   2.729   5.551   5.272  0.4280  0.4013  0.5378
 8177SOL     OW25971   5.411   5.816  12.065 -0.4981  0.2578  0.0143
 8177SOL    HW125972   5.368   5.733  12.046  0.8949 -0.0961 -1.9165
 8177SOL    HW225973   5.500   5.792  12.092  0.5209  1.0658 -2.2995
 8178SOL     OW25974   4.223   5.810   8.754  0.0866 -0.2117 -0.0997
 8178SOL    HW125975   4.295   5.874   8.757  0.2202 -0.3215 -0.7744
 8178SOL    HW225976   4.160   5.848   8.693 -0.1953 -0.3585  0.0992
 8179SOL     OW25977   4.748   1.618   4.070 -0.2182 -0.1644  0.6345
 8179SOL    HW125978   4.727   1.632   4.162  0.6447  0.3122  0.7649
 8179SOL    HW225979   4.677   1.562   4.038 -1.3007  0.8241  1.2168
 8180SOL     OW25980   4.103   5.850   9.188  0.5575 -0.1073 -0.3965
 8180SOL    HW125981   4.179   5.880   9.238 -0.7695 -1.2557  2.5464
 8180SOL    HW225982   4.140   5.793   9.121  2.4074  0.6901 -0.1225
 8181SOL     OW25983   1.924   4.712   6.570 -0.1642  0.3602  0.2965
 8181SOL    HW125984   1.899   4.674   6.485  1.5606  0.7493 -0.4150
 8181SOL    HW225985   2.016   4.733   6.561  0.1581  0.0693  2.4308
 8182SOL     OW25986   0.156   5.646   5.460  0.4564  0.2285  0.4125
 8182SOL    HW125987   0.062   5.661   5.463  0.0207 -2.1294  0.2507
 8182SOL    HW225988   0.194   5.722   5.503 -1.5756  0.7178  1.4384
 8183SOL     OW25989   7.409   5.959  10.024  0.2479 -0.2998 -0.0044
 8183SOL    HW125990   7.346   5.992   9.960  0.4886 -1.0780 -0.6652
 8183SOL    HW225991   7.379   5.995  10.107 -1.8036 -1.5814 -0.1123
 8184SOL     OW25992   2.648   1.016   4.024  0.0962 -0.0062 -0.2581
 8184SOL    HW125993   2.590   1.009   3.947  0.7004 -1.8221 -0.5879
 8184SOL    HW225994   2.707   1.088   4.002  0.9716 -1.1896 -2.0396
 8185SOL     OW25995   3.531   0.087   0.123  0.2193 -0.3778  0.0055
 8185SOL    HW125996   3.537   0.001   0.082  1.0285 -0.2738 -0.1083
 8185SOL    HW225997   3.620   0.107   0.150  0.1540  0.7146 -0.5581
 8186SOL     OW25998   1.783   0.019   5.142  0.2567 -0.2399 -0.3689
 8186SOL    HW125999   1.771   0.114   5.146 -0.8503 -0.2852 -1.8698
 8186SOL    HW226000   1.723  -0.015   5.208 -0.0297  0.0664 -0.4665
 8187SOL     OW26001   3.940   4.541   5.920 -0.2464 -0.2864  0.5557
 8187SOL    HW126002   3.916   4.479   5.851 -0.1001  0.5369 -0.2596
 8187SOL    HW226003   4.005   4.493   5.973 -1.2407 -1.3502  0.8491
 8188SOL     OW26004   3.595   2.049  11.095  0.6995 -0.8264 -0.2576
 8188SOL    HW126005   3.567   2.138  11.113  3.0714 -0.2699  1.2203
 8188SOL    HW226006   3.535   1.994  11.144  0.7282  0.1301  0.8860
 8189SOL     OW26007   0.291   4.724   0.550  0.6402 -0.1593  0.2576
 8189SOL    HW126008   0.367   4.673   0.580  0.6118 -0.4071 -0.0834
 8189SOL    HW226009   0.290   4.801   0.606  1.5976  0.2252 -0.2505
 8190SOL     OW26010   4.826   0.055   1.380 -0.8202 -0.2725 -0.1413
 8190SOL    HW126011   4.778   0.134   1.355 -2.1821 -0.9420  0.2804
 8190SOL    HW226012   4.901   0.087   1.429 -1.2954  0.7744 -0.0806
 8191SOL     OW26013   3.982   1.607   4.447  0.0987  0.5278  0.3463
 8191SOL    HW126014   4.050   1.564   4.500  3.5341  2.0938 -2.4096
 8191SOL    HW226015   3.943   1.536   4.396 -1.9671 -0.7078  3.3754
 8192SOL     OW26016   7.336   6.724   9.976 -0.2630 -0.0106 -0.3116
 8192SOL    HW126017   7.321   6.800   9.920 -0.7307 -0.0350 -0.2241
 8192SOL    HW226018   7.423   6.692   9.951 -1.0286 -0.8718 -2.0037
 8193SOL     OW26019   2.056   0.220   1.845  0.1923  0.8370  0.3372
 8193SOL    HW126020   1.980   0.255   1.798  0.2597 -1.2802 -1.5078
 8193SOL    HW226021   2.019   0.169   1.916 -0.1612 -0.3280 -0.6592
 8194SOL     OW26022   6.438   2.729  10.288 -0.0157  0.1678 -0.2155
 8194SOL    HW126023   6.424   2.647  10.241  0.0930 -1.0952  1.8423
 8194SOL    HW226024   6.415   2.710  10.379  1.1144  2.0974  0.5587
 8195SOL     OW26025   7.558   7.133   6.146  0.1939  0.3713 -0.3264
 8195SOL    HW126026   7.501   7.197   6.189  0.9531  0.4687  0.5572
 8195SOL    HW226027   7.546   7.052   6.197 -0.1657  0.0158 -0.9579
 8196SOL     OW26028   2.608   7.293  10.406 -0.6632  0.0019  0.4945
 8196SOL    HW126029   2.672   7.347  10.359 -1.4151  1.6295  1.2456
 8196SOL    HW226030   2.615   7.206  10.365  0.1620  0.8069 -1.2001
 8197SOL     OW26031   7.944   4.033   4.427  0.4306  0.4719 -0.1371
 8197SOL    HW126032   7.980   3.987   4.503  0.1995 -0.3560 -0.5191
 8197SOL    HW226033   7.855   4.056   4.452  0.5663  0.7637  0.0777
 8198SOL     OW26034   3.799   7.361  10.438 -0.1596 -0.3196 -0.8205
 8198SOL    HW126035   3.710   7.350  10.472 -0.0760  0.5592 -0.3000
 8198SOL    HW226036   3.827   7.446  10.472  0.1466  0.3208 -2.6076
 8199SOL     OW26037   0.792   7.523   8.333 -0.7674 -0.2003 -0.0956
 8199SOL    HW126038   0.860   7.485   8.277 -0.4055 -4.6417  2.8126
 8199SOL    HW226039   0.709   7.495   8.292 -0.6908  0.3427 -0.6423
 8200SOL     OW26040   4.632   6.505   7.304 -0.1136  0.2075 -0.4115
 8200SOL    HW126041   4.720   6.476   7.328 -0.4321 -0.1748  0.3155
 8200SOL    HW226042   4.604   6.445   7.235  1.1716  1.8787 -2.5077
 8201SOL     OW26043   7.486   7.034  11.882  0.3352 -0.1210 -0.6359
 8201SOL    HW126044   7.434   6.962  11.918 -0.0087  0.3696 -0.1475
 8201SOL    HW226045   7.439   7.060  11.803 -0.0461  0.1829 -0.3085
 8202SOL     OW26046   0.577   5.272   2.146  0.2560 -0.2359  0.0990
 8202SOL    HW126047   0.488   5.283   2.180  1.0643  2.1099  1.7429
 8202SOL    HW226048   0.631   5.262   2.224  1.7148  0.9122 -0.7215
 8203SOL     OW26049   1.807   0.312   4.785  0.2360  0.7307 -0.0196
 8203SOL    HW126050   1.896   0.304   4.817 -0.1567 -0.1178  0.8941
 8203SOL    HW226051   1.816   0.362   4.703  1.7035 -0.5301 -0.6901
 8204SOL     OW26052   1.989   2.572  12.109  0.1932  0.1674  0.8492
 8204SOL    HW126053   1.898   2.565  12.140  0.0430 -1.9075  0.1154
 8204SOL    HW226054   2.025   2.646  12.158 -1.2253 -0.3793  2.8615
 8205SOL     OW26055   6.592   0.654   8.059  0.3263  0.7836 -0.0994
 8205SOL    HW126056   6.538   0.575   8.057 -1.2134  1.8146 -1.9991
 8205SOL    HW226057   6.682   0.621   8.070 -0.0285 -1.3921 -2.7551
 8206SOL     OW26058   2.531   0.989   8.025  0.5851  0.1367  0.1480
 8206SOL    HW126059   2.548   1.060   8.086 -1.0233  1.4875 -0.8773
 8206SOL    HW226060   2.518   0.912   8.079 -2.2647  1.5568  1.7073
 8207SOL     OW26061   3.852   0.572   6.939 -0.2142  0.5909 -0.8834
 8207SOL    HW126062   3.905   0.586   7.018  0.8356  2.5824 -1.8630
 8207SOL    HW226063   3.833   0.478   6.940 -0.2622  0.5457  1.7275
 8208SOL     OW26064   7.317   6.566   0.921 -0.2724 -1.0203  0.0598
 8208SOL    HW126065   7.354   6.578   0.834 -1.4553  0.5645 -0.2588
 8208SOL    HW226066   7.352   6.639   0.972 -2.2393  0.0789 -0.0471
 8209SOL     OW26067   2.281   4.717   9.582 -0.4511  0.2454 -0.2393
 8209SOL    HW126068   2.339   4.712   9.507  0.5528  0.9048  0.4641
 8209SOL    HW226069   2.208   4.772   9.553 -0.6845 -0.5114 -1.1000
 8210SOL     OW26070   7.268   3.255   4.311  0.0725  0.5832 -0.4327
 8210SOL    HW126071   7.281   3.313   4.235  0.7640  1.1098  0.0753
 8210SOL    HW226072   7.216   3.307   4.372  1.2981  0.9504  0.3244
 8211SOL     OW26073   4.637   3.343   5.361 -0.1697  0.3745  0.2792
 8211SOL    HW126074   4.542   3.356   5.353 -0.1767 -0.4756 -1.5011
 8211SOL    HW226075   4.648   3.248   5.359  0.8507  0.4709 -2.0282
 8212SOL     OW26076   0.667   3.509   5.615  0.4530 -0.4991 -0.4676
 8212SOL    HW126077   0.747   3.528   5.665  0.3653  1.9583 -1.1263
 8212SOL    HW226078   0.699   3.485   5.528  0.4994 -1.2143 -0.2600
 8213SOL     OW26079   3.423   2.172   8.461 -0.0109 -0.3499  0.0998
 8213SOL    HW126080   3.329   2.180   8.474 -0.3756 -0.3155 -2.2217
 8213SOL    HW226081   3.461   2.240   8.517 -1.4436  0.5273  0.0299
 8214SOL     OW26082   0.485   7.157   4.904 -0.5889 -0.0489 -0.2333
 8214SOL    HW126083   0.512   7.066   4.909 -2.3183 -0.5790  0.2025
 8214SOL    HW226084   0.402   7.155   4.856 -0.3727  1.3681 -0.7288
 8215SOL     OW26085   6.569   1.840   9.114  0.6019 -0.3274  0.2417
 8215SOL    HW126086   6.614   1.904   9.059  0.3332  0.7730  1.2605
 8215SOL    HW226087   6.627   1.827   9.189 -0.5148  0.7499  1.3370
 8216SOL     OW26088   4.323   0.837   8.123  0.5158  0.2491 -0.7446
 8216SOL    HW126089   4.316   0.781   8.200 -0.9272 -1.3057 -1.9305
 8216SOL    HW226090   4.274   0.916   8.145  0.0388 -0.2232 -0.0843
 8217SOL     OW26091   1.625   5.991   4.991 -0.4671 -0.5362 -0.3314
 8217SOL    HW126092   1.640   5.919   4.929  0.7171  0.6468 -1.4819
 8217SOL    HW226093   1.535   6.019   4.974 -1.0707 -1.9201  0.3694
 8218SOL     OW26094   3.129   5.361   1.578 -0.6566 -0.1025  0.3416
 8218SOL    HW126095   3.072   5.380   1.504 -0.8127  0.2415  0.5415
 8218SOL    HW226096   3.077   5.384   1.655 -1.1244 -2.0623  0.6576
 8219SOL     OW26097   7.902   0.141  11.544 -0.0538 -0.2462  0.0561
 8219SOL    HW126098   7.914   0.049  11.524  0.5500 -0.2475  0.4245
 8219SOL    HW226099   7.879   0.181  11.459 -1.3537 -0.8935  0.0825
 8220SOL     OW26100   7.597   7.050   4.402  0.4699  0.2565 -0.2645
 8220SOL    HW126101   7.623   7.046   4.494 -0.5879 -0.7010  0.0075
 8220SOL    HW226102   7.521   6.992   4.396  2.3827 -2.2664 -2.3738
 8221SOL     OW26103   0.508   4.629   8.621 -0.6622  0.5405 -0.1212
 8221SOL    HW126104   0.418   4.618   8.590 -0.5160  0.3654 -0.4938
 8221SOL    HW226105   0.506   4.599   8.712 -0.0663 -3.8695 -1.3411
 8222SOL     OW26106   2.411   4.627   9.364 -0.4483 -0.1199 -0.2957
 8222SOL    HW126107   2.411   4.721   9.345 -0.0176 -0.0423  0.0855
 8222SOL    HW226108   2.503   4.601   9.359 -0.5373 -0.4696 -0.1440
 8223SOL     OW26109   4.172   7.504   7.642  0.0541 -0.3280 -0.0716
 8223SOL    HW126110   4.094   7.513   7.698 -0.2378 -3.6621  0.2732
 8223SOL    HW226111   4.240   7.472   7.701  1.2384  0.8755 -0.7298
 8224SOL     OW26112   5.561   0.985   2.900  0.0650 -0.1251  0.4176
 8224SOL    HW126113   5.577   0.979   2.806 -2.3687  3.1025 -0.3597
 8224SOL    HW226114   5.603   1.067   2.926 -3.4799  1.6589  0.9714
 8225SOL     OW26115   6.741   1.165   0.666  0.3180  0.7165 -0.1120
 8225SOL    HW126116   6.775   1.122   0.587  1.6599  0.9855  0.2934
 8225SOL    HW226117   6.754   1.100   0.735 -1.7074  0.1229 -0.2395
 8226SOL     OW26118   6.449   5.358   0.234 -0.0694  0.2871 -0.2600
 8226SOL    HW126119   6.441   5.408   0.315 -1.7207  0.2504 -0.3673
 8226SOL    HW226120   6.509   5.409   0.180  0.4289  0.7202  0.6846
 8227SOL     OW26121   6.264   6.034   9.733 -0.1025 -0.2360 -0.3370
 8227SOL    HW126122   6.323   6.073   9.797 -0.7699  1.3700 -0.6622
 8227SOL    HW226123   6.320   5.977   9.679  1.2094  1.4169 -0.7866
 8228SOL     OW26124   5.995   2.576   5.602 -0.1918  0.3713 -0.1153
 8228SOL    HW126125   5.994   2.543   5.512  1.9068  1.1209 -0.4610
 8228SOL    HW226126   5.952   2.661   5.596  0.4045  0.6507 -0.5189
 8229SOL     OW26127   1.062   5.115   3.731 -0.6625  0.3335  0.2744
 8229SOL    HW126128   1.104   5.064   3.801 -0.1205  1.2816  0.6614
 8229SOL    HW226129   1.085   5.206   3.750 -2.2162  0.8145  0.0162
 8230SOL     OW26130   1.100   6.293   9.702 -0.0866 -0.2704  0.3197
 8230SOL    HW126131   1.031   6.319   9.640 -1.2932 -0.8432  1.3906
 8230SOL    HW226132   1.053   6.258   9.777  1.3772 -0.2273  1.2887
 8231SOL     OW26133   6.362   6.358  12.188 -0.7799  0.0250  0.0557
 8231SOL    HW126134   6.313   6.280  12.160  0.0005 -1.0591  1.5720
 8231SOL    HW226135   6.453   6.328  12.193 -0.7303  0.4472  2.5561
 8232SOL     OW26136   3.948   4.131   1.375 -0.9643 -0.4518  0.0085
 8232SOL    HW126137   4.037   4.150   1.405 -0.5585 -2.3172  0.0849
 8232SOL    HW226138   3.919   4.213   1.334  0.7761  0.1956 -0.0221
 8233SOL     OW26139   4.387   7.138   6.417  0.0756 -0.1855  0.0237
 8233SOL    HW126140   4.481   7.156   6.408  0.1713 -0.6942 -0.0287
 8233SOL    HW226141   4.346   7.224   6.407  0.5469  0.0786  0.2803
 8234SOL     OW26142   2.461   6.765  11.434  0.0804  0.2134  0.3615
 8234SOL    HW126143   2.417   6.850  11.426 -0.7723 -0.1168  1.4081
 8234SOL    HW226144   2.453   6.726  11.347  0.5068  1.2021 -0.1429
 8235SOL     OW26145   2.223   0.115   0.166 -0.4082  0.1675 -0.2514
 8235SOL    HW126146   2.252   0.028   0.192 -0.7045  0.4916  1.2304
 8235SOL    HW226147   2.143   0.099   0.117 -0.4168 -0.4015 -0.0620
 8236SOL     OW26148   7.637   3.815   6.792  0.6003 -0.3109 -0.1063
 8236SOL    HW126149   7.711   3.828   6.733  1.1698 -2.0467  0.1577
 8236SOL    HW226150   7.626   3.898   6.837  1.1350  0.5766 -1.5526
 8237SOL     OW26151   5.659   5.676   0.046  0.1421  0.3617  0.1842
 8237SOL    HW126152   5.741   5.677   0.095  0.0387 -1.7787  0.4707
 8237SOL    HW226153   5.647   5.585   0.021 -2.1776  0.6191  0.1669
 8238SOL     OW26154   3.834   6.254   7.511  0.2602 -0.0108 -0.1457
 8238SOL    HW126155   3.753   6.300   7.531  0.7508  0.6079  0.4271
 8238SOL    HW226156   3.822   6.167   7.548  0.2166  0.3733  0.7653
 8239SOL     OW26157   7.456   1.920   4.732 -0.3621 -0.2149 -0.1927
 8239SOL    HW126158   7.520   1.936   4.662  0.6094 -0.4417  0.6211
 8239SOL    HW226159   7.392   1.990   4.722 -0.0339 -0.0191 -1.0653
 8240SOL     OW26160   1.807   7.845   2.900  0.3841  0.3459  0.7114
 8240SOL    HW126161   1.823   7.857   2.994  1.5777 -0.8145  0.6992
 8240SOL    HW226162   1.873   7.900   2.858 -0.3418  1.0934  0.5399
 8241SOL     OW26163   0.645   0.997   0.429  0.5121  0.4285 -0.0956
 8241SOL    HW126164   0.650   0.993   0.525 -3.4195 -0.8395  0.2377
 8241SOL    HW226165   0.706   0.930   0.399  1.0565  0.1343  1.5394
 8242SOL     OW26166   0.592   4.881   8.197 -0.0814 -0.3706  0.0117
 8242SOL    HW126167   0.660   4.939   8.161 -0.9955  0.2798 -0.7300
 8242SOL    HW226168   0.599   4.891   8.292  1.1919 -0.7158 -0.0248
 8243SOL     OW26169   2.716   2.666   8.001 -0.1730  0.0342 -0.0769
 8243SOL    HW126170   2.732   2.716   7.921 -0.4978 -0.7555 -0.6507
 8243SOL    HW226171   2.779   2.594   7.998 -2.0354 -1.6771 -1.1233
 8244SOL     OW26172   4.610   3.641   4.828 -0.0126 -0.0641  0.8810
 8244SOL    HW126173   4.670   3.706   4.864 -0.8411  1.7574 -0.8447
 8244SOL    HW226174   4.634   3.634   4.736 -0.2724 -1.8803  0.9089
 8245SOL     OW26175   7.820   5.814  11.447  0.5342 -0.4518 -0.5059
 8245SOL    HW126176   7.862   5.729  11.434  0.1588 -0.8872  0.9478
 8245SOL    HW226177   7.741   5.795  11.496  0.4486  0.7445 -0.1365
 8246SOL     OW26178   4.423   4.323   2.117  0.5676 -0.2633  0.1373
 8246SOL    HW126179   4.412   4.230   2.098  0.6927 -0.4124  0.7850
 8246SOL    HW226180   4.382   4.335   2.202  1.3647  0.0966  0.4747
 8247SOL     OW26181   0.459   6.597   2.293  0.0430  0.3176 -0.6828
 8247SOL    HW126182   0.545   6.616   2.329 -0.5219  2.3796 -0.2552
 8247SOL    HW226183   0.474   6.531   2.226  2.1382  1.4980 -1.4510
 8248SOL     OW26184   0.011   5.024   6.668  0.1396 -0.0279 -0.3690
 8248SOL    HW126185   0.015   5.084   6.593 -2.6863 -0.4239 -0.9368
 8248SOL    HW226186   0.025   5.080   6.744 -1.3664  1.1969 -0.9546
 8249SOL     OW26187   3.134   0.411   7.246 -0.4898 -0.3071 -0.4147
 8249SOL    HW126188   3.073   0.398   7.174  0.2431  2.4784 -1.6775
 8249SOL    HW226189   3.079   0.436   7.321 -1.0737 -0.4554 -0.7905
 8250SOL     OW26190   7.458   5.227   6.857  0.0043 -0.1080  0.1183
 8250SOL    HW126191   7.438   5.142   6.819  1.6885 -0.9119  0.9082
 8250SOL    HW226192   7.507   5.207   6.937  1.8821  1.5663 -0.5056
 8251SOL     OW26193   2.679   0.116   5.269  0.3679  0.0886 -0.1597
 8251SOL    HW126194   2.772   0.096   5.280  0.1578 -0.6963  0.2626
 8251SOL    HW226195   2.663   0.112   5.175  1.0079  1.3867 -0.3421
 8252SOL     OW26196   4.678   3.839  11.672 -0.0053  0.7439 -0.5542
 8252SOL    HW126197   4.694   3.860  11.581  1.6249 -1.9747 -1.0099
 8252SOL    HW226198   4.583   3.830  11.679 -0.1092  0.3938 -2.1674
 8253SOL     OW26199   7.031   0.931   3.407 -0.0230  0.1952  0.5014
 8253SOL    HW126200   6.974   1.006   3.429  0.7517  1.0595 -0.3372
 8253SOL    HW226201   7.104   0.970   3.360 -0.3388 -1.2702 -1.3086
 8254SOL     OW26202   2.042   2.976  12.016 -0.3869 -0.0401 -0.2610
 8254SOL    HW126203   2.068   2.923  12.091 -1.0075 -0.0637 -0.0518
 8254SOL    HW226204   2.093   3.056  12.023 -1.6600  0.6929  1.1633
 8255SOL     OW26205   2.286   3.831  11.209 -0.1417  0.4456  0.3123
 8255SOL    HW126206   2.235   3.912  11.220 -1.5927 -0.5449  1.1994
 8255SOL    HW226207   2.377   3.858  11.225 -0.4408  2.0898 -0.4492
 8256SOL     OW26208   3.339   0.365  11.424 -0.2079 -0.2822 -0.5774
 8256SOL    HW126209   3.425   0.325  11.416 -0.4820 -1.1615  0.6443
 8256SOL    HW226210   3.357   0.459  11.433  0.4801 -0.1827 -2.5445
 8257SOL     OW26211   4.495   7.888   9.101  0.4740  0.4884  0.3714
 8257SOL    HW126212   4.443   7.912   9.177 -0.6796  1.6633 -0.7272
 8257SOL    HW226213   4.462   7.802   9.075  1.3227 -0.2087  1.5579
 8258SOL     OW26214   3.400   6.682   2.847  0.0307  0.1840 -0.2079
 8258SOL    HW126215   3.441   6.756   2.891  1.2934 -0.0362 -0.9537
 8258SOL    HW226216   3.464   6.611   2.856 -0.3124 -0.2603 -1.1495
 8259SOL     OW26217   0.734   2.994   9.294  0.3836 -0.1317  0.6748
 8259SOL    HW126218   0.811   2.947   9.261  0.5401 -0.1087  1.0042
 8259SOL    HW226219   0.766   3.082   9.314 -0.2917  0.6951 -1.6223
 8260SOL     OW26220   7.360   5.707   4.817 -0.0461  0.5081  0.4127
 8260SOL    HW126221   7.330   5.621   4.788  1.4174 -0.0743  0.5176
 8260SOL    HW226222   7.450   5.692   4.847 -0.3611  1.7333  2.1132
 8261SOL     OW26223   2.129   2.146  12.153  0.0756  0.5908 -0.8441
 8261SOL    HW126224   2.150   2.228  12.199 -0.7140  0.4709 -0.2540
 8261SOL    HW226225   2.195   2.140  12.084  0.6962  1.2666 -0.3274
 8262SOL     OW26226   2.796   2.501   5.159 -0.0560  0.4158 -0.0159
 8262SOL    HW126227   2.801   2.497   5.254  1.9540  2.0363  0.0048
 8262SOL    HW226228   2.833   2.418   5.129  0.1342  0.2811  0.5927
 8263SOL     OW26229   5.242   4.850   6.449  0.0924  0.0312  0.0866
 8263SOL    HW126230   5.274   4.849   6.359 -2.3482  1.3099 -0.8809
 8263SOL    HW226231   5.203   4.937   6.459 -0.0057 -0.2191  2.2827
 8264SOL     OW26232   7.418   1.220  10.892 -0.3810 -0.1546  0.3591
 8264SOL    HW126233   7.469   1.211  10.972 -1.5497 -3.1894  0.9249
 8264SOL    HW226234   7.328   1.197  10.919 -0.5719 -2.5852 -1.9770
 8265SOL     OW26235   5.779   2.843  12.063 -0.0326 -0.6161  0.0173
 8265SOL    HW126236   5.745   2.921  12.019  1.7459 -0.4424 -1.1931
 8265SOL    HW226237   5.774   2.774  11.997 -0.1979 -1.1413  0.5730
 8266SOL     OW26238   1.623   3.880  11.283 -0.7321 -0.0216  0.1574
 8266SOL    HW126239   1.606   3.974  11.285  0.3039  0.1759  1.0560
 8266SOL    HW226240   1.545   3.842  11.243 -0.6821  1.3164 -1.3083
 8267SOL     OW26241   3.182   0.469   4.204 -0.1580  0.0338  0.3796
 8267SOL    HW126242   3.226   0.538   4.154  0.6961 -1.8163 -1.6102
 8267SOL    HW226243   3.114   0.437   4.145 -0.3132 -1.0348  1.1050
 8268SOL     OW26244   0.877   7.348   7.153 -0.3310 -0.1737  0.5378
 8268SOL    HW126245   0.878   7.255   7.127  0.5819  0.3062 -1.2740
 8268SOL    HW226246   0.953   7.386   7.110 -1.2003  1.6158  0.5031
 8269SOL     OW26247   2.853   2.651   5.950 -0.0466  0.4442  0.6587
 8269SOL    HW126248   2.817   2.627   6.035  0.4353  2.5838  1.5136
 8269SOL    HW226249   2.880   2.742   5.959  0.5074  0.5818 -1.6359
 8270SOL     OW26250   3.258   6.798  10.802 -0.3355 -1.0174 -0.1571
 8270SOL    HW126251   3.243   6.718  10.854 -1.5897 -1.3954 -1.0548
 8270SOL    HW226252   3.342   6.831  10.834 -1.0782 -1.1691  2.1925
 8271SOL     OW26253   5.495   2.271   9.182 -0.4401 -0.5948  0.6716
 8271SOL    HW126254   5.580   2.287   9.223  0.5024  0.7890 -1.5740
 8271SOL    HW226255   5.458   2.359   9.170 -0.8912 -0.9708 -0.8879
 8272SOL     OW26256   2.288   5.935   6.884  0.3741 -0.0493  0.5286
 8272SOL    HW126257   2.275   5.918   6.791  1.4108  1.3794  0.0809
 8272SOL    HW226258   2.200   5.956   6.918  0.0519 -0.1978 -0.2094
 8273SOL     OW26259   1.941   6.554   0.458  0.3134  0.1187 -0.0929
 8273SOL    HW126260   1.971   6.537   0.548  0.0512 -1.9998 -0.3376
 8273SOL    HW226261   2.005   6.615   0.422  2.8130 -2.0700  0.3145
 8274SOL     OW26262   3.234   5.483  10.547  0.1944 -0.4719  0.3756
 8274SOL    HW126263   3.143   5.458  10.565 -0.6392  2.0564  0.0617
 8274SOL    HW226264   3.272   5.499  10.634  0.1752 -0.9887  0.4807
 8275SOL     OW26265   4.949   4.321   2.960 -0.0553  0.3497  0.5105
 8275SOL    HW126266   4.942   4.234   3.000  1.4817 -0.0150  0.0531
 8275SOL    HW226267   4.923   4.382   3.029 -1.2652 -0.4682  0.8022
 8276SOL     OW26268   1.293   6.149   5.280  0.5176  0.0688 -0.5678
 8276SOL    HW126269   1.259   6.204   5.210  0.3076  0.1435 -0.4082
 8276SOL    HW226270   1.303   6.063   5.240 -0.7270 -0.1779 -0.3766
 8277SOL     OW26271   2.377   1.587   4.920 -0.2491 -0.4373 -0.2630
 8277SOL    HW126272   2.383   1.492   4.909  0.7712 -0.4970  0.5486
 8277SOL    HW226273   2.423   1.603   5.003 -1.5104  0.6364  0.2434
 8278SOL     OW26274   6.748   7.478   9.537  0.3449  0.0263 -0.1959
 8278SOL    HW126275   6.762   7.529   9.617  0.3119 -0.9178  0.4275
 8278SOL    HW226276   6.814   7.511   9.476  0.5914  0.5317  0.3266
 8279SOL     OW26277   2.535   2.222   9.041  0.3482  0.4622 -0.2349
 8279SOL    HW126278   2.562   2.247   9.130 -0.9365 -0.2417  0.3927
 8279SOL    HW226279   2.475   2.292   9.014 -0.4248 -0.0653  0.0709
 8280SOL     OW26280   7.164   2.449   3.443  0.4475 -0.4292 -0.2229
 8280SOL    HW126281   7.156   2.437   3.349 -0.3862 -2.3548  0.0495
 8280SOL    HW226282   7.088   2.501   3.468 -0.1195 -1.1494 -0.4307
 8281SOL     OW26283   3.508   6.198   5.440  0.3855  0.4762 -0.1155
 8281SOL    HW126284   3.430   6.191   5.494 -0.0436  0.4086 -0.7293
 8281SOL    HW226285   3.491   6.275   5.385  0.8957  0.6600 -0.0143
 8282SOL     OW26286   2.415   1.129  10.260 -0.2671  0.4516 -0.0006
 8282SOL    HW126287   2.334   1.159  10.300 -0.1848 -0.0611  0.5697
 8282SOL    HW226288   2.450   1.205  10.214 -1.0043  0.7058 -0.1449
 8283SOL     OW26289   4.727   1.241   6.169  0.0360 -0.2269  0.8524
 8283SOL    HW126290   4.710   1.247   6.263 -1.4967  1.7535  0.5228
 8283SOL    HW226291   4.744   1.331   6.143  1.2479 -0.8592 -0.6570
 8284SOL     OW26292   4.699   6.031   6.243 -0.1834  0.2791 -0.3583
 8284SOL    HW126293   4.642   5.988   6.179 -0.7537 -0.0100  0.3280
 8284SOL    HW226294   4.700   5.972   6.318 -2.4372  2.2256  1.3510
 8285SOL     OW26295   2.380   4.487   2.177 -0.2541 -0.3607  0.3239
 8285SOL    HW126296   2.322   4.411   2.186  1.8170 -2.2014 -0.9903
 8285SOL    HW226297   2.448   4.458   2.116  2.8426  1.1725  2.7788
 8286SOL     OW26298   3.306   1.954   6.819 -0.4761  0.6018  0.0469
 8286SOL    HW126299   3.231   1.946   6.879 -0.7653  1.3974 -0.2095
 8286SOL    HW226300   3.344   2.039   6.839  2.4539 -1.0717  2.5765
 8287SOL     OW26301   7.305   7.126   4.335 -0.2897  1.0648  0.5355
 8287SOL    HW126302   7.323   7.040   4.372 -0.6554 -0.7857 -3.2066
 8287SOL    HW226303   7.211   7.140   4.352 -1.2746 -1.2643 -2.2107
 8288SOL     OW26304   5.398   6.728   8.307 -0.2683  0.8842  0.1051
 8288SOL    HW126305   5.326   6.671   8.335  1.2938 -0.4720  1.6340
 8288SOL    HW226306   5.424   6.693   8.222 -0.5376  0.4882  0.1781
 8289SOL     OW26307   5.784   1.428   0.811  0.1004 -0.0316  0.2183
 8289SOL    HW126308   5.800   1.508   0.761 -1.1558  0.9017  1.2254
 8289SOL    HW226309   5.830   1.443   0.894 -0.6435 -0.0850  0.6433
 8290SOL     OW26310   2.671   4.956   6.602 -0.0042 -0.2156 -0.5171
 8290SOL    HW126311   2.677   5.037   6.551 -0.8809 -0.5747 -1.2087
 8290SOL    HW226312   2.680   4.886   6.537 -1.7370 -0.6876 -0.2868
 8291SOL     OW26313   6.111   1.985   3.650  0.1821  0.0215 -0.5010
 8291SOL    HW126314   6.175   2.055   3.637 -2.1326  2.6588  1.2510
 8291SOL    HW226315   6.109   1.971   3.745  0.5118 -2.4511 -0.7890
 8292SOL     OW26316   4.063   3.279   5.077  0.1094 -0.3102  0.3325
 8292SOL    HW126317   4.010   3.343   5.030  0.5603 -0.6715 -0.6791
 8292SOL    HW226318   4.026   3.279   5.166  0.3899  1.6547  0.4963
 8293SOL     OW26319   4.115   2.742   8.360  0.2742 -0.5498 -0.1340
 8293SOL    HW126320   4.187   2.733   8.297  0.1617  0.3857 -0.4247
 8293SOL    HW226321   4.070   2.822   8.332 -1.1132 -1.3187 -0.1910
 8294SOL     OW26322   7.922   1.326   4.141  0.8154  0.6534  0.1287
 8294SOL    HW126323   7.846   1.364   4.186 -0.4300  0.5122 -1.7252
 8294SOL    HW226324   7.956   1.397   4.086  1.0315  0.2711 -0.2386
 8295SOL     OW26325   1.953   6.264   7.631 -0.2134  0.7476 -0.0743
 8295SOL    HW126326   1.893   6.219   7.571 -0.0084  1.6008 -0.9523
 8295SOL    HW226327   1.897   6.294   7.702 -0.2515 -1.4329  0.8908
 8296SOL     OW26328   2.365   3.149   2.102 -0.4396  0.1904  0.2309
 8296SOL    HW126329   2.309   3.113   2.033 -1.9938  0.1779  1.4568
 8296SOL    HW226330   2.451   3.158   2.060 -1.1591 -0.4754 -1.4890
 8297SOL     OW26331   7.088   6.244   8.793  0.6197 -0.0867 -0.5167
 8297SOL    HW126332   7.101   6.306   8.864 -2.4657  0.2147 -0.0550
 8297SOL    HW226333   7.020   6.285   8.739 -2.2056 -3.3101  0.2875
 8298SOL     OW26334   1.535   0.763   4.942 -0.4927  0.2202 -0.6323
 8298SOL    HW126335   1.608   0.775   5.003 -0.8892  1.4517 -0.3771
 8298SOL    HW226336   1.571   0.783   4.856 -0.0855 -0.9347 -0.7473
 8299SOL     OW26337   6.456   5.387   4.751 -0.0752 -0.1594  0.2411
 8299SOL    HW126338   6.472   5.295   4.730 -0.1470  0.0718 -0.9122
 8299SOL    HW226339   6.539   5.417   4.789 -0.1564 -0.7721  0.9259
 8300SOL     OW26340   5.032   7.834   4.901 -0.1404 -0.0086  0.2313
 8300SOL    HW126341   5.085   7.863   4.975  1.0344  0.2267 -0.6779
 8300SOL    HW226342   4.942   7.831   4.935  0.2006  1.3129  1.3188
 8301SOL     OW26343   3.463   5.742   4.816 -0.5043  0.0372 -0.0152
 8301SOL    HW126344   3.464   5.796   4.737  0.1744 -0.5823 -0.4469
 8301SOL    HW226345   3.374   5.707   4.820  0.1907 -2.3233 -2.2178
 8302SOL     OW26346   0.709   6.208   9.286  0.3462 -0.5861 -0.0567
 8302SOL    HW126347   0.623   6.248   9.275 -0.5987 -2.7753 -1.3505
 8302SOL    HW226348   0.722   6.204   9.380 -0.8788 -0.0357  0.1572
 8303SOL     OW26349   1.888   7.581  10.331  0.3908 -0.1838  0.0562
 8303SOL    HW126350   1.951   7.509  10.339  0.6196 -0.0428 -0.4142
 8303SOL    HW226351   1.834   7.557  10.255  1.7324  1.0614 -1.3693
 8304SOL     OW26352   0.400   7.881  12.202  0.1599 -0.2786 -0.0932
 8304SOL    HW126353   0.398   7.802  12.148  0.5316 -0.1284 -0.3348
 8304SOL    HW226354   0.315   7.922  12.188  0.1793 -0.3430 -0.4116
 8305SOL     OW26355   3.000   0.089   9.194  0.2282 -0.5292  0.1035
 8305SOL    HW126356   3.061   0.163   9.191 -0.4696  0.0963  0.8868
 8305SOL    HW226357   2.990   0.062   9.103 -0.2700  0.9808 -0.3157
 8306SOL     OW26358   5.472   1.419   6.300 -0.3307  0.7319 -0.0376
 8306SOL    HW126359   5.521   1.378   6.228 -1.2574 -1.1256  0.3265
 8306SOL    HW226360   5.438   1.500   6.262  1.9773  1.4873 -0.6543
 8307SOL     OW26361   4.990   2.276   7.845  0.9592  0.1178  0.4434
 8307SOL    HW126362   5.010   2.218   7.919  3.7764  0.1863 -0.1463
 8307SOL    HW226363   4.980   2.363   7.884 -0.7555 -0.3124  1.0444
 8308SOL     OW26364   2.512   5.711   9.444  0.4031  0.1796 -0.2678
 8308SOL    HW126365   2.431   5.696   9.494  0.4755 -0.3087 -0.2865
 8308SOL    HW226366   2.528   5.805   9.451  2.3710 -0.2259  3.7341
 8309SOL     OW26367   2.563   6.322  11.235  0.2354  0.2814 -0.6072
 8309SOL    HW126368   2.622   6.388  11.200  0.2989  0.1086 -0.8260
 8309SOL    HW226369   2.477   6.364  11.233  0.6342  1.4180  1.8986
 8310SOL     OW26370   5.450   2.490   0.780  0.0152  0.3785 -0.1962
 8310SOL    HW126371   5.513   2.487   0.708 -1.2732  2.1058 -1.4775
 8310SOL    HW226372   5.462   2.577   0.818 -0.5657  0.1534  0.5157
 8311SOL     OW26373   6.233   2.424  11.471 -0.2501  0.5754  0.3970
 8311SOL    HW126374   6.146   2.412  11.434 -0.3464 -0.3575  0.9061
 8311SOL    HW226375   6.290   2.437  11.395 -1.1865  3.9783  0.1098
 8312SOL     OW26376   0.876   0.811   7.591 -0.0871  0.7634 -0.6653
 8312SOL    HW126377   0.799   0.841   7.639  0.3818 -1.0508  1.3431
 8312SOL    HW226378   0.841   0.754   7.522 -0.5555  0.1815  0.0465
 8313SOL     OW26379   4.953   3.258   8.558 -0.1621  0.2619 -0.0875
 8313SOL    HW126380   4.871   3.245   8.604 -0.2833  2.0748  0.2809
 8313SOL    HW226381   4.955   3.352   8.537  1.4472  0.1203 -0.7761
 8314SOL     OW26382   7.803   2.775  11.741 -0.0976 -0.5037  0.3978
 8314SOL    HW126383   7.715   2.744  11.765 -0.7395  0.5400 -0.5195
 8314SOL    HW226384   7.836   2.814  11.822 -1.0317  0.2763  0.4356
 8315SOL     OW26385   7.289   6.357  11.869  0.3518 -0.3412  0.5276
 8315SOL    HW126386   7.299   6.367  11.964  1.4918  2.2895  0.2023
 8315SOL    HW226387   7.195   6.360  11.854  0.1678 -0.6472  1.5388
 8316SOL     OW26388   4.780   0.442   3.642  0.2639  0.2648  0.2232
 8316SOL    HW126389   4.765   0.525   3.597  0.1490 -0.1341 -0.4887
 8316SOL    HW226390   4.850   0.400   3.593  2.0715  1.0009  2.0345
 8317SOL     OW26391   3.046   1.261   9.076  0.3808  0.0015 -0.0944
 8317SOL    HW126392   2.988   1.250   9.151  0.1538  1.1772 -0.0664
 8317SOL    HW226393   2.989   1.252   8.999  0.4264 -0.2152 -0.1037
 8318SOL     OW26394   3.516   0.483   8.620 -0.8595  0.2484 -0.4601
 8318SOL    HW126395   3.593   0.472   8.676 -1.0363  0.5768 -0.1537
 8318SOL    HW226396   3.446   0.508   8.679 -0.9877  0.8496 -0.8616
 8319SOL     OW26397   7.592   7.185   8.936 -0.2731 -0.5303  0.7749
 8319SOL    HW126398   7.654   7.174   8.864 -1.0370 -0.9497  0.1606
 8319SOL    HW226399   7.625   7.127   9.004  0.3155 -0.3283  0.6727
 8320SOL     OW26400   6.388   6.803  10.860  0.5381  0.3152  0.4881
 8320SOL    HW126401   6.476   6.840  10.873  1.4415 -1.6362  0.3160
 8320SOL    HW226402   6.384   6.784  10.766 -0.5318  1.4394  0.2889
 8321SOL     OW26403   4.579   0.255  10.040 -0.0941 -0.2646  0.8858
 8321SOL    HW126404   4.560   0.220  10.127 -1.0638 -1.1079  0.3482
 8321SOL    HW226405   4.498   0.299  10.014 -0.1582 -0.8995 -0.0077
 8322SOL     OW26406   5.327   6.582   0.275  0.5901 -0.0592 -0.3725
 8322SOL    HW126407   5.419   6.558   0.263  0.6745  0.8071 -1.6222
 8322SOL    HW226408   5.281   6.537   0.204 -0.3933 -2.5443  1.6563
 8323SOL     OW26409   3.447   1.228   2.666  0.3585  0.0333 -0.2737
 8323SOL    HW126410   3.530   1.195   2.701  0.1887  0.2165  0.3286
 8323SOL    HW226411   3.381   1.168   2.703  0.2585 -0.3750 -1.0996
 8324SOL     OW26412   4.071   3.920   4.808 -0.1811  0.0398 -0.6898
 8324SOL    HW126413   4.062   3.840   4.756  0.8977  0.2761 -1.2672
 8324SOL    HW226414   4.128   3.976   4.755 -0.5496  1.0095 -0.0805
 8325SOL     OW26415   6.492   7.447  11.309 -0.0224  0.2963  0.9181
 8325SOL    HW126416   6.480   7.538  11.338  0.6074  0.7142 -0.0621
 8325SOL    HW226417   6.586   7.432  11.317 -0.1296 -0.2713  1.0893
 8326SOL     OW26418   5.843   6.236   2.516  0.0816 -0.2101 -0.2058
 8326SOL    HW126419   5.929   6.221   2.478  0.6925 -0.1878  1.1430
 8326SOL    HW226420   5.820   6.154   2.558  0.2771  0.3544  1.0304
 8327SOL     OW26421   3.819   2.558   0.751  0.0558 -0.1411 -0.2440
 8327SOL    HW126422   3.890   2.528   0.808 -0.2547 -1.0167 -0.3007
 8327SOL    HW226423   3.858   2.561   0.664 -0.6900 -3.6165 -0.8502
 8328SOL     OW26424   5.558   3.525   6.323  0.4063  0.0321 -0.5958
 8328SOL    HW126425   5.582   3.581   6.397 -0.6925 -0.4070  0.1126
 8328SOL    HW226426   5.568   3.436   6.356  2.2965 -0.2648 -1.7586
 8329SOL     OW26427   5.305   4.109   2.456  0.3518  0.0539 -0.1116
 8329SOL    HW126428   5.307   4.158   2.538 -0.6504 -0.4186  0.2125
 8329SOL    HW226429   5.285   4.019   2.482 -1.4969  0.1773 -0.9621
 8330SOL     OW26430   1.549   3.188  11.625 -0.2321  0.3364 -0.0861
 8330SOL    HW126431   1.492   3.263  11.640 -1.9030 -0.8058 -0.4732
 8330SOL    HW226432   1.525   3.125  11.693 -1.6679 -1.3784 -2.0567
 8331SOL     OW26433   6.335   5.766   6.956  0.4974  0.0131 -0.4411
 8331SOL    HW126434   6.425   5.756   6.926  1.0103  3.9827 -0.7778
 8331SOL    HW226435   6.340   5.831   7.026 -1.8236 -1.9774  1.7697
 8332SOL     OW26436   3.422   5.510  10.954  0.1680 -0.5660 -0.0848
 8332SOL    HW126437   3.441   5.602  10.932  0.1345 -0.4066  0.5247
 8332SOL    HW226438   3.459   5.499  11.041 -0.0285 -1.0727 -0.0671
 8333SOL     OW26439   2.787   7.763   6.814 -0.3432  0.2232  0.5116
 8333SOL    HW126440   2.711   7.708   6.833 -0.8214  0.5769 -0.3166
 8333SOL    HW226441   2.859   7.702   6.804 -0.5910 -0.1471  0.9356
 8334SOL     OW26442   3.825   0.476   8.648 -0.2995 -0.4882  0.1032
 8334SOL    HW126443   3.876   0.427   8.584  0.1135  0.1647 -0.0703
 8334SOL    HW226444   3.841   0.568   8.628 -2.3829 -0.2342 -0.6309
 8335SOL     OW26445   4.844   5.821   0.864  0.8060 -0.0865  0.1372
 8335SOL    HW126446   4.815   5.738   0.825 -0.3303  0.2256  0.2934
 8335SOL    HW226447   4.797   5.827   0.946  0.9270  0.6940  0.1572
 8336SOL     OW26448   6.350   2.379   4.674 -0.6422  0.3249 -0.5644
 8336SOL    HW126449   6.333   2.285   4.678 -1.1315  0.4392  0.5133
 8336SOL    HW226450   6.279   2.418   4.725 -0.7406  1.3284 -1.4233
 8337SOL     OW26451   1.581   1.584   7.599  0.5218 -0.3510  0.6756
 8337SOL    HW126452   1.603   1.676   7.613  0.6896 -0.1877 -0.5723
 8337SOL    HW226453   1.619   1.562   7.514  2.8694 -2.3516  2.1008
 8338SOL     OW26454   5.147   6.336   0.932  0.2384  0.3771 -0.5771
 8338SOL    HW126455   5.225   6.285   0.910 -0.1955 -1.0047  0.8232
 8338SOL    HW226456   5.074   6.286   0.894 -0.1027  0.6268 -0.2622
 8339SOL     OW26457   1.271   2.373  12.026  0.8449  0.1967 -0.0786
 8339SOL    HW126458   1.309   2.446  11.978  1.9351  0.6876  1.4468
 8339SOL    HW226459   1.236   2.412  12.106 -1.4837 -0.4993 -0.6703
 8340SOL     OW26460   6.085   2.051   8.234  0.1162  0.0817  0.3052
 8340SOL    HW126461   6.000   2.029   8.271 -0.5844  1.3440 -0.4827
 8340SOL    HW226462   6.072   2.045   8.139  1.1902 -0.6884  0.1888
 8341SOL     OW26463   2.156   4.713   5.518 -0.2508  0.1659 -0.8414
 8341SOL    HW126464   2.086   4.676   5.464 -0.4098 -0.9070  0.0672
 8341SOL    HW226465   2.133   4.805   5.527 -1.1878 -0.0340 -1.1174
 8342SOL     OW26466   5.707   1.394   8.093 -0.6249 -0.2440 -0.5715
 8342SOL    HW126467   5.613   1.375   8.087 -0.5851 -0.4833 -0.4565
 8342SOL    HW226468   5.712   1.489   8.096 -1.0305 -0.2465  1.9403
 8343SOL     OW26469   6.506   5.480   5.113 -0.4515  0.7138  0.0705
 8343SOL    HW126470   6.490   5.574   5.115  0.1486  0.9310  4.5725
 8343SOL    HW226471   6.422   5.440   5.138  0.4985  0.5655  3.5188
 8344SOL     OW26472   5.329   1.291   7.466 -0.1470  0.1220 -0.2164
 8344SOL    HW126473   5.379   1.229   7.413 -2.0272 -0.1045 -1.7989
 8344SOL    HW226474   5.359   1.377   7.437 -1.8236  0.0308 -2.4341
 8345SOL     OW26475   2.542   2.356   5.384 -0.8292  0.1023 -0.0496
 8345SOL    HW126476   2.467   2.350   5.442 -0.0899 -1.6324  0.7898
 8345SOL    HW226477   2.512   2.318   5.301 -0.1745 -3.3001  1.1171
 8346SOL     OW26478   2.466   1.684   1.118 -0.2577 -0.0810  0.0349
 8346SOL    HW126479   2.518   1.754   1.078  0.3207 -1.0104 -0.8601
 8346SOL    HW226480   2.424   1.640   1.045 -1.9122  0.3065  0.7038
 8347SOL     OW26481   7.303   5.701  10.482  0.0456 -0.1176  0.1156
 8347SOL    HW126482   7.358   5.773  10.513  0.7970 -0.8499  0.4970
 8347SOL    HW226483   7.274   5.729  10.395  1.2401  0.1545 -0.2108
 8348SOL     OW26484   3.510   6.753  10.408  0.3885 -0.0324 -0.2865
 8348SOL    HW126485   3.600   6.779  10.426  0.3793 -0.2947  0.1574
 8348SOL    HW226486   3.504   6.751  10.313  0.7084  0.4781 -0.3219
 8349SOL     OW26487   2.662   0.760   2.739 -0.5034  0.4944  0.1927
 8349SOL    HW126488   2.627   0.723   2.820  0.4630  0.4132  0.5933
 8349SOL    HW226489   2.679   0.852   2.760 -0.1870  0.4569  0.1087
 8350SOL     OW26490   6.893   0.317   2.631  0.1121  0.1994  0.1117
 8350SOL    HW126491   6.886   0.237   2.579 -0.4236 -0.0444  0.5547
 8350SOL    HW226492   6.890   0.288   2.722  0.9114  0.6351  0.2881
 8351SOL     OW26493   1.143   1.455  12.409  0.2339 -0.1832  0.1479
 8351SOL    HW126494   1.109   1.543  12.392 -1.1078 -0.5775  0.7092
 8351SOL    HW226495   1.237   1.463  12.393 -0.0458  1.0128 -1.1610
 8352SOL     OW26496   4.316   7.381   8.784  0.0843 -0.3572 -0.2121
 8352SOL    HW126497   4.366   7.380   8.866 -1.9064  1.8379  1.1536
 8352SOL    HW226498   4.352   7.309   8.733  2.2110 -1.0656  2.0997
 8353SOL     OW26499   6.205   0.424   8.560 -0.1570  0.5226  0.1880
 8353SOL    HW126500   6.126   0.471   8.587  1.1072  1.1783  3.1214
 8353SOL    HW226501   6.241   0.389   8.641  2.5534  0.2245 -1.0275
 8354SOL     OW26502   2.088   6.524   0.165  0.1660  0.0486  0.0870
 8354SOL    HW126503   2.031   6.527   0.089 -1.3107  1.9761  1.1750
 8354SOL    HW226504   2.147   6.599   0.155 -0.4659  0.7123  1.1041
 8355SOL     OW26505   5.104   6.981   3.197 -0.0907  0.5450  0.3584
 8355SOL    HW126506   5.151   6.921   3.139 -0.2828  0.9505 -0.2239
 8355SOL    HW226507   5.061   6.923   3.261 -1.7069 -0.1020 -1.2143
 8356SOL     OW26508   3.020   5.109   1.178  0.7891  0.2040 -0.4339
 8356SOL    HW126509   3.008   5.029   1.228  0.0699  1.3006  1.2308
 8356SOL    HW226510   3.109   5.102   1.142  1.1509 -0.8358  0.6101
 8357SOL     OW26511   3.203   1.624   7.233 -0.5458  0.0726 -0.4308
 8357SOL    HW126512   3.201   1.653   7.324  1.1080  0.5117 -0.5045
 8357SOL    HW226513   3.293   1.639   7.205 -0.4860 -1.9587 -1.5252
 8358SOL     OW26514   3.841   5.925   5.660 -0.2098  0.5094  0.0633
 8358SOL    HW126515   3.934   5.907   5.649 -0.4546 -0.4982 -0.4773
 8358SOL    HW226516   3.838   6.014   5.695  1.0054 -0.0049  1.5725
 8359SOL     OW26517   2.505   7.430  11.657 -0.2794  0.5191  0.1668
 8359SOL    HW126518   2.450   7.419  11.580 -1.3218  1.5762  0.7130
 8359SOL    HW226519   2.588   7.391  11.634 -1.2435 -1.1044 -0.7134
 8360SOL     OW26520   6.297   0.025  10.170  0.0758 -0.5672 -0.3101
 8360SOL    HW126521   6.275  -0.061  10.136  0.4143 -1.4040  1.4893
 8360SOL    HW226522   6.374   0.011  10.224 -0.6652  0.5863  1.1287
 8361SOL     OW26523   7.597   4.799  10.408 -0.2886 -0.2779  0.2816
 8361SOL    HW126524   7.585   4.790  10.502  0.0818 -2.2926  0.1842
 8361SOL    HW226525   7.689   4.775  10.393 -0.3855 -0.1360 -0.5993
 8362SOL     OW26526   1.287   4.080  11.703  0.5354 -0.3595  0.5485
 8362SOL    HW126527   1.319   4.087  11.793 -0.0586  2.9548  0.6269
 8362SOL    HW226528   1.195   4.054  11.713  0.5373 -0.2435  0.8859
 8363SOL     OW26529   1.510   6.814   7.951 -0.6466 -0.0391  0.1170
 8363SOL    HW126530   1.449   6.806   8.024 -0.9356 -2.8714 -0.3179
 8363SOL    HW226531   1.595   6.787   7.987 -0.5649 -0.3662 -0.3102
 8364SOL     OW26532   6.107   0.412  11.225 -0.3876  0.1084 -0.1760
 8364SOL    HW126533   6.104   0.476  11.153 -0.3038 -0.4732 -0.7015
 8364SOL    HW226534   6.080   0.462  11.302  1.9814  1.4329 -0.0860
 8365SOL     OW26535   4.350   0.872  10.812  0.6443  0.8208 -0.2780
 8365SOL    HW126536   4.299   0.910  10.883  2.1003  2.2939  0.0435
 8365SOL    HW226537   4.416   0.818  10.856 -0.1415 -0.4877 -0.6537
 8366SOL     OW26538   1.364   1.125   5.706  0.5186 -0.0987 -0.0619
 8366SOL    HW126539   1.275   1.156   5.720  0.1381 -1.0100 -0.3816
 8366SOL    HW226540   1.419   1.202   5.718 -0.2307  0.2761  1.0455
 8367SOL     OW26541   3.396   7.624  10.213 -0.3345 -0.5119 -0.2637
 8367SOL    HW126542   3.301   7.629  10.225 -0.1654 -0.3969  1.1470
 8367SOL    HW226543   3.412   7.535  10.180 -0.7629 -1.2564  1.4345
 8368SOL     OW26544   2.289   4.021   2.497 -0.2195  0.3396 -0.4906
 8368SOL    HW126545   2.333   4.085   2.553  1.4906  1.5159 -2.9786
 8368SOL    HW226546   2.326   3.937   2.524  1.7488  1.0419 -0.8035
 8369SOL     OW26547   4.091   0.307   4.181  0.3271 -0.4720 -0.1478
 8369SOL    HW126548   4.116   0.232   4.128  0.1013  0.3163 -1.4260
 8369SOL    HW226549   3.995   0.310   4.174  0.3094 -0.2665  0.1763
 8370SOL     OW26550   2.847   7.423   0.212  0.3956  0.1849 -0.4208
 8370SOL    HW126551   2.782   7.492   0.204 -0.6744 -0.5532  1.4530
 8370SOL    HW226552   2.799   7.348   0.246  1.7080 -1.2386 -1.5240
 8371SOL     OW26553   7.443   1.918   3.909 -1.2925 -0.9201 -0.3248
 8371SOL    HW126554   7.367   1.877   3.949 -1.9726 -1.6435 -2.2152
 8371SOL    HW226555   7.417   1.932   3.817  0.6877 -0.7871 -0.9168
 8372SOL     OW26556   5.142   7.418   3.110  0.4349  1.3052  0.5432
 8372SOL    HW126557   5.074   7.478   3.141 -0.3052  0.5406  0.4439
 8372SOL    HW226558   5.143   7.348   3.174  0.2083  0.6595 -0.1441
 8373SOL     OW26559   1.293   3.548  10.889 -0.5939 -0.3169  0.4194
 8373SOL    HW126560   1.366   3.598  10.852  0.1795  0.3746  2.7348
 8373SOL    HW226561   1.332   3.463  10.913 -0.4564  0.1193  1.8256
 8374SOL     OW26562   6.428   6.159   8.565 -0.1095  0.4736  0.3523
 8374SOL    HW126563   6.332   6.149   8.564 -0.1361  0.7940 -0.2033
 8374SOL    HW226564   6.443   6.248   8.534  0.3570  0.5623  0.8229
 8375SOL     OW26565   3.848   0.371   0.902  0.3978  0.0181  0.0551
 8375SOL    HW126566   3.855   0.459   0.938 -0.2530  0.2970 -0.4683
 8375SOL    HW226567   3.901   0.317   0.960  3.3190  1.2087 -1.3050
 8376SOL     OW26568   2.400   4.402   9.850  0.0686  0.4226  0.0127
 8376SOL    HW126569   2.351   4.412   9.768  1.5401  0.7994 -0.8420
 8376SOL    HW226570   2.388   4.485   9.895 -0.1057  0.4953 -0.1638
 8377SOL     OW26571   7.179   0.595  11.204  0.1634  0.2534 -0.0373
 8377SOL    HW126572   7.210   0.654  11.272  0.7085  0.2169 -0.2549
 8377SOL    HW226573   7.258   0.561  11.162 -0.1442 -0.3946 -0.1209
 8378SOL     OW26574   0.848   4.059   6.003 -0.0154  0.0330 -0.1729
 8378SOL    HW126575   0.917   4.114   6.041 -0.0015  0.1739 -0.4031
 8378SOL    HW226576   0.872   3.970   6.029 -0.5949  0.2170  1.0811
 8379SOL     OW26577   1.078   3.376   2.895 -0.2789 -0.2172 -0.4539
 8379SOL    HW126578   1.032   3.457   2.875  0.8101  0.4265 -0.4603
 8379SOL    HW226579   1.072   3.367   2.990  1.5778  1.1697 -0.1299
 8380SOL     OW26580   6.617   1.133   8.302 -0.0070 -0.1923 -0.0390
 8380SOL    HW126581   6.658   1.201   8.248 -1.7639  0.8136 -0.1838
 8380SOL    HW226582   6.605   1.060   8.242 -0.4547  0.3191 -0.5882
 8381SOL     OW26583   0.951   7.547   2.390 -0.2418 -0.0382  0.0300
 8381SOL    HW126584   1.022   7.502   2.438  0.8827  0.8591 -0.7453
 8381SOL    HW226585   0.884   7.561   2.456 -0.0504 -1.6239  0.6132
 8382SOL     OW26586   0.931   7.512   2.856  0.1274 -0.1039  0.0591
 8382SOL    HW126587   0.968   7.527   2.943 -0.1797  0.1393  0.1475
 8382SOL    HW226588   0.920   7.599   2.819  0.1869 -0.2045 -0.1952
 8383SOL     OW26589   7.460   0.135   1.735 -0.7262 -0.5225 -0.0717
 8383SOL    HW126590   7.528   0.090   1.787 -1.3228  0.4732  1.6384
 8383SOL    HW226591   7.431   0.207   1.790 -0.9610  1.0102 -2.0788
 8384SOL     OW26592   1.514   7.378   4.972  0.3895  0.1271  0.2793
 8384SOL    HW126593   1.488   7.298   4.926 -0.3910 -0.6062  1.9231
 8384SOL    HW226594   1.587   7.412   4.920  1.8099 -2.5123  0.3875
 8385SOL     OW26595   1.865   5.033   5.366 -0.5883  0.7528 -0.0985
 8385SOL    HW126596   1.795   5.003   5.424 -1.0395  1.3434 -0.3302
 8385SOL    HW226597   1.921   4.956   5.354 -1.5738  0.0742 -0.4679
 8386SOL     OW26598   7.228   3.922   4.642 -0.1199  0.7037 -0.3049
 8386SOL    HW126599   7.292   3.987   4.673  0.4701  0.6808 -1.4243
 8386SOL    HW226600   7.279   3.864   4.585 -1.0963  0.5437 -1.0336
 8387SOL     OW26601   6.391   6.055   6.486 -0.5511 -0.7559  0.2160
 8387SOL    HW126602   6.300   6.087   6.491 -0.5782 -0.2705 -2.2798
 8387SOL    HW226603   6.443   6.125   6.526 -1.1496 -0.3555  0.3133
 8388SOL     OW26604   4.439   0.603   3.148 -0.2664  0.7489 -0.2967
 8388SOL    HW126605   4.434   0.518   3.193 -1.1499  0.7927 -0.2915
 8388SOL    HW226606   4.457   0.666   3.217 -2.1724  0.8909  0.1349
 8389SOL     OW26607   1.624   2.641  11.086 -0.0254  0.2864 -0.6197
 8389SOL    HW126608   1.632   2.736  11.090  0.4878  0.2120  1.5389
 8389SOL    HW226609   1.656   2.617  10.999  0.9634  1.9995 -0.7580
 8390SOL     OW26610   7.877   1.726   9.512 -0.0218  0.0119  0.3278
 8390SOL    HW126611   7.878   1.715   9.417  3.0904  0.8560  0.1496
 8390SOL    HW226612   7.889   1.638   9.548 -1.5076 -0.3494  0.0154
 8391SOL     OW26613   0.507   5.766   2.917 -0.6004  0.3272  0.1236
 8391SOL    HW126614   0.486   5.846   2.869 -3.2041 -0.6234 -0.5004
 8391SOL    HW226615   0.573   5.793   2.981 -1.3915  2.9831 -0.0510
 8392SOL     OW26616   6.476   4.472  11.413 -0.1419 -0.0775  0.4763
 8392SOL    HW126617   6.469   4.376  11.414  1.0147 -0.1947  2.0237
 8392SOL    HW226618   6.386   4.503  11.403 -0.3016 -1.2853 -3.0314
 8393SOL     OW26619   5.510   3.878   8.735 -0.6898  0.6038 -0.1645
 8393SOL    HW126620   5.438   3.855   8.794  0.6921 -1.6185  0.7696
 8393SOL    HW226621   5.487   3.836   8.652 -0.1721 -0.7438  0.3458
 8394SOL     OW26622   4.280   2.063   5.137 -0.1195 -0.9151 -0.0011
 8394SOL    HW126623   4.292   1.970   5.157  1.2839 -0.7607 -0.0113
 8394SOL    HW226624   4.253   2.102   5.221 -0.4594 -1.2957  0.0646
 8395SOL     OW26625   3.580   1.391   3.922  0.0311 -0.2266  0.0200
 8395SOL    HW126626   3.512   1.428   3.977  1.3755  0.4453  1.2955
 8395SOL    HW226627   3.583   1.448   3.845 -0.1660  0.3420  0.4322
 8396SOL     OW26628   6.270   0.559   1.080  0.8472 -0.0692 -0.1659
 8396SOL    HW126629   6.239   0.468   1.075 -0.1204  0.2568 -0.2598
 8396SOL    HW226630   6.194   0.609   1.109  1.0755  0.8714 -1.1232
 8397SOL     OW26631   3.520   6.550   3.864 -0.4084  0.5419 -0.2473
 8397SOL    HW126632   3.573   6.616   3.910  0.0399  0.0145  0.0102
 8397SOL    HW226633   3.496   6.488   3.932 -1.4726  0.8361 -0.3448
 8398SOL     OW26634   3.395   5.020   1.282  0.0714 -0.0525 -0.6798
 8398SOL    HW126635   3.390   4.949   1.345 -1.3238  0.8262  0.2684
 8398SOL    HW226636   3.367   5.098   1.331 -1.7596  0.5578 -2.5177
 8399SOL     OW26637   6.834   7.270   9.792  0.7966 -0.0951 -0.7584
 8399SOL    HW126638   6.857   7.267   9.699 -0.4278 -0.9378 -1.0574
 8399SOL    HW226639   6.832   7.179   9.819  0.0451  0.0754 -0.1964
 8400SOL     OW26640   0.569   3.331   3.194 -0.2723 -0.3573 -0.2796
 8400SOL    HW126641   0.495   3.271   3.209 -0.3113 -0.0477  0.9126
 8400SOL    HW226642   0.646   3.275   3.198 -0.3207 -0.3878  0.6681
 8401SOL     OW26643   7.444   0.158   6.544 -0.2642  0.5561 -0.0300
 8401SOL    HW126644   7.440   0.147   6.639 -0.5925  0.7806 -0.0168
 8401SOL    HW226645   7.354   0.175   6.518 -0.2944 -0.2197 -0.4685
 8402SOL     OW26646   3.868   2.253   0.118  0.1398 -0.3490 -0.3414
 8402SOL    HW126647   3.899   2.280   0.032 -2.0304 -1.8658 -1.7024
 8402SOL    HW226648   3.853   2.336   0.165  1.6254  0.4937 -1.2757
 8403SOL     OW26649   3.689   3.019  10.648  0.4894  0.3692 -0.0806
 8403SOL    HW126650   3.779   2.987  10.654 -0.0349 -1.5589 -1.5228
 8403SOL    HW226651   3.674   3.030  10.554 -0.5125  1.5940  0.1901
 8404SOL     OW26652   3.054   4.094   0.686 -1.0501 -0.4437  0.2141
 8404SOL    HW126653   3.130   4.046   0.656  0.5175  1.8213  0.3208
 8404SOL    HW226654   3.032   4.153   0.614 -0.7439  1.0935  1.3274
 8405SOL     OW26655   1.804   6.275   2.946 -0.5948  0.1999  0.1789
 8405SOL    HW126656   1.709   6.289   2.937 -0.6369  0.1494  0.5160
 8405SOL    HW226657   1.843   6.360   2.925 -0.6216 -0.1477 -1.3810
 8406SOL     OW26658   3.610   7.916   9.661  0.2696  0.3682 -0.4976
 8406SOL    HW126659   3.615   7.881   9.572 -1.2707 -2.2436  0.3391
 8406SOL    HW226660   3.528   7.966   9.663  0.5536  0.8511 -0.6490
 8407SOL     OW26661   7.719   2.341  10.333  0.5726  0.0560 -0.4158
 8407SOL    HW126662   7.718   2.312  10.425  1.0282  0.5338 -0.2560
 8407SOL    HW226663   7.781   2.414  10.332 -1.7982  2.2147 -0.4653
 8408SOL     OW26664   2.953   0.284   1.743 -0.2236  0.0440  0.3324
 8408SOL    HW126665   2.983   0.201   1.781  2.9009  0.5020 -0.8393
 8408SOL    HW226666   2.967   0.349   1.812  0.1749  0.0179  0.2822
 8409SOL     OW26667   5.071   3.013   2.927 -0.3504  0.0234  0.0801
 8409SOL    HW126668   5.004   2.984   2.864  0.8382  0.3612 -1.3934
 8409SOL    HW226669   5.053   3.106   2.939  0.0064  0.1775 -0.5333
 8410SOL     OW26670   3.344   4.093  11.594 -0.0217  0.0127 -0.2130
 8410SOL    HW126671   3.378   4.179  11.619 -0.2000  0.0942 -0.2477
 8410SOL    HW226672   3.251   4.097  11.617  0.1025 -0.3984  0.3812
 8411SOL     OW26673   7.252   2.616   5.414 -0.0280 -0.3143 -0.3496
 8411SOL    HW126674   7.311   2.685   5.444  0.3992 -0.2097 -1.3977
 8411SOL    HW226675   7.182   2.614   5.479  0.0571  0.9709 -0.2043
 8412SOL     OW26676   4.317   5.758   0.241 -0.1099  0.3269  0.8073
 8412SOL    HW126677   4.351   5.669   0.229  0.3553  0.4230  1.3784
 8412SOL    HW226678   4.309   5.768   0.336  0.1909  1.0252  0.7643
 8413SOL     OW26679   2.259   0.370   9.587  0.4528  0.5787  0.1230
 8413SOL    HW126680   2.269   0.407   9.674 -2.2435 -1.7098  1.5783
 8413SOL    HW226681   2.226   0.442   9.534  1.9047  1.9528  1.0088
 8414SOL     OW26682   5.091   1.254   6.437 -0.3680  0.6067 -0.0341
 8414SOL    HW126683   5.181   1.257   6.469  0.2977  2.5462 -1.8181
 8414SOL    HW226684   5.088   1.174   6.383 -0.0284  0.0150  0.7977
 8415SOL     OW26685   5.420   3.831   7.731 -0.4869 -0.3531  0.2206
 8415SOL    HW126686   5.396   3.741   7.707 -1.2837 -1.2785  3.8400
 8415SOL    HW226687   5.339   3.870   7.765  0.1603  1.2719 -0.0088
 8416SOL     OW26688   5.896   0.753   7.203  0.3361 -0.2616 -0.0995
 8416SOL    HW126689   5.830   0.700   7.247  0.8916 -1.2917 -0.4556
 8416SOL    HW226690   5.974   0.744   7.258  0.0901  1.2988  0.5579
 8417SOL     OW26691   1.550   3.970   3.063  0.1588  0.0681  0.2410
 8417SOL    HW126692   1.594   3.913   3.001  1.7105  1.9925 -0.5503
 8417SOL    HW226693   1.603   3.966   3.143  0.7171  0.9166 -0.0685
 8418SOL     OW26694   0.638   7.535   4.476 -0.4216 -0.6430 -0.0137
 8418SOL    HW126695   0.573   7.586   4.524  0.1138 -0.0314  0.0746
 8418SOL    HW226696   0.586   7.475   4.422 -1.0651 -0.0208 -0.1050
 8419SOL     OW26697   7.272   4.033   5.053  0.3893  0.4470  0.7070
 8419SOL    HW126698   7.313   4.060   4.971  1.9247 -0.4031  1.1612
 8419SOL    HW226699   7.186   3.999   5.026 -1.5451  5.1383  0.0830
 8420SOL     OW26700   6.731   7.837   8.039  0.3669  0.0987  0.2344
 8420SOL    HW126701   6.635   7.837   8.042  0.2662  0.1476 -1.6282
 8420SOL    HW226702   6.752   7.839   7.946  2.2040  2.0124  0.6142
 8421SOL     OW26703   7.891   7.680   3.880 -0.2155  0.1482 -0.0109
 8421SOL    HW126704   7.912   7.689   3.787  1.1426  0.1237  0.2776
 8421SOL    HW226705   7.870   7.770   3.908  1.4824  0.5375  0.1242
 8422SOL     OW26706   7.303   1.455   8.754  0.2622 -0.1309 -0.7810
 8422SOL    HW126707   7.222   1.419   8.790 -0.0131  0.2029 -1.0547
 8422SOL    HW226708   7.274   1.533   8.705  0.7803  0.1488 -0.6424
 8423SOL     OW26709   1.454   1.802   0.134 -0.0444 -0.4614  0.4389
 8423SOL    HW126710   1.539   1.836   0.162  0.3642 -1.2012  0.1370
 8423SOL    HW226711   1.437   1.845   0.050 -0.8668  1.1043  1.3582
 8424SOL     OW26712   2.636   5.395   1.885 -0.2728 -0.1689 -0.6336
 8424SOL    HW126713   2.599   5.357   1.965 -0.5341  0.4777 -0.4455
 8424SOL    HW226714   2.633   5.323   1.821 -3.1844  0.1870 -1.0511
 8425SOL     OW26715   5.646   4.299   3.037  0.5321  0.1997 -0.1536
 8425SOL    HW126716   5.706   4.369   3.065 -1.2343  1.7303 -0.0068
 8425SOL    HW226717   5.592   4.281   3.114  1.7444 -2.2964  0.2173
 8426SOL     OW26718   0.516   0.785  10.127  0.6379 -0.4114 -0.4454
 8426SOL    HW126719   0.559   0.870  10.135  0.1825 -0.2367  0.2664
 8426SOL    HW226720   0.566   0.727  10.185 -0.3777 -0.0749  0.8175
 8427SOL     OW26721   0.333   4.771   4.107 -0.0389  0.0626 -0.8176
 8427SOL    HW126722   0.276   4.771   4.030 -0.4270  1.0799 -0.5491
 8427SOL    HW226723   0.421   4.766   4.071 -0.2817 -2.9782 -1.1982
 8428SOL     OW26724   1.355   4.607  11.203  0.1304 -0.4059 -0.0293
 8428SOL    HW126725   1.377   4.527  11.250  0.1362 -0.7229 -0.5551
 8428SOL    HW226726   1.261   4.599  11.185 -0.3274  0.6621  1.6861
 8429SOL     OW26727   5.542   2.663   1.833 -0.6121 -0.1186  0.3846
 8429SOL    HW126728   5.585   2.578   1.845  0.7730  0.4055 -0.5292
 8429SOL    HW226729   5.501   2.682   1.917 -0.8934 -1.6500  0.6275
 8430SOL     OW26730   1.747   5.927   7.556  0.4972  0.4438  0.4108
 8430SOL    HW126731   1.774   6.014   7.526  1.7866 -0.1768 -0.3287
 8430SOL    HW226732   1.825   5.872   7.543 -0.0254 -0.6378  1.6635
 8431SOL     OW26733   6.621   3.563   9.458  0.0474  0.5595 -0.6237
 8431SOL    HW126734   6.715   3.575   9.451  0.2568 -0.2921  0.4421
 8431SOL    HW226735   6.596   3.605   9.540 -0.2363 -0.5234 -0.1304
 8432SOL     OW26736   1.724   3.944   9.925  0.0330  0.6366 -0.1620
 8432SOL    HW126737   1.780   3.904   9.858  0.4746 -0.5093  0.8630
 8432SOL    HW226738   1.636   3.940   9.888  0.0760 -1.2195 -0.1404
 8433SOL     OW26739   0.480   6.729   1.257 -0.1452  0.1491 -0.3535
 8433SOL    HW126740   0.509   6.808   1.304 -0.3419  0.1142 -0.1730
 8433SOL    HW226741   0.400   6.703   1.302  0.6378 -0.9464  0.4640
 8434SOL     OW26742   7.026   6.323   9.500  0.5846  0.0465 -0.6200
 8434SOL    HW126743   7.076   6.345   9.421 -0.0479 -0.4069 -1.1587
 8434SOL    HW226744   7.077   6.254   9.542  1.1711  0.6198 -0.3716
 8435SOL     OW26745   6.291   2.333   6.222 -0.1036  0.3277  0.3540
 8435SOL    HW126746   6.274   2.421   6.255  0.2389  0.7909 -0.6682
 8435SOL    HW226747   6.222   2.318   6.156  0.1835  0.0600  0.1110
 8436SOL     OW26748   4.590   1.642   7.168  0.5735 -0.3562  0.0520
 8436SOL    HW126749   4.650   1.570   7.149 -0.6172 -1.5503  0.7027
 8436SOL    HW226750   4.639   1.699   7.226  1.1571 -1.2071  0.4094
 8437SOL     OW26751   7.052   2.143  11.553 -0.2842  0.0577  0.5094
 8437SOL    HW126752   6.992   2.075  11.524 -0.0592  0.5796 -1.2695
 8437SOL    HW226753   7.053   2.207  11.482  0.0693  1.5628  1.8093
 8438SOL     OW26754   6.289   0.675   3.655  0.0874 -0.4058  0.0341
 8438SOL    HW126755   6.327   0.654   3.570 -0.4681  0.1910 -0.3703
 8438SOL    HW226756   6.206   0.627   3.657 -0.3081  0.2594 -0.1256
 8439SOL     OW26757   7.105   4.634   1.844 -0.6838  0.0928  0.0134
 8439SOL    HW126758   7.081   4.542   1.856 -0.0178 -0.1577 -0.4586
 8439SOL    HW226759   7.023   4.678   1.822 -1.1181 -0.2652  0.8689
 8440SOL     OW26760   4.592   1.172   6.771 -0.3461 -0.0282 -0.7074
 8440SOL    HW126761   4.574   1.239   6.705 -1.2141  1.6906  1.1817
 8440SOL    HW226762   4.512   1.168   6.824  1.0128  0.1668  1.4977
 8441SOL     OW26763   7.593   0.476   4.636 -0.0623 -0.1167 -0.5562
 8441SOL    HW126764   7.575   0.489   4.543  1.7972  0.7483 -0.8395
 8441SOL    HW226765   7.580   0.383   4.650 -0.3777 -0.2571 -1.6748
 8442SOL     OW26766   0.588   7.080   2.123 -0.3535 -0.4946 -0.2311
 8442SOL    HW126767   0.527   7.032   2.178  0.0282 -0.6910  0.0209
 8442SOL    HW226768   0.674   7.065   2.163 -0.3322  1.2271  0.4734
 8443SOL     OW26769   6.819   2.502   6.258  0.9115 -0.8121  0.3553
 8443SOL    HW126770   6.734   2.544   6.268  1.3533 -0.0216  0.8801
 8443SOL    HW226771   6.813   2.422   6.311 -0.1597 -1.8104 -1.1899
 8444SOL     OW26772   0.983   2.198   3.267 -0.1242 -0.3154  0.2147
 8444SOL    HW126773   0.918   2.128   3.257  1.1679 -1.3679 -1.2243
 8444SOL    HW226774   0.975   2.250   3.186 -2.1353  2.2469  1.8848
 8445SOL     OW26775   1.740   1.627   9.239 -0.2123 -0.0625  0.0631
 8445SOL    HW126776   1.677   1.694   9.264  1.5528  1.2904  1.0740
 8445SOL    HW226777   1.785   1.664   9.163  1.3059  0.3233  1.0938
 8446SOL     OW26778   2.315   3.985   8.689 -0.1916 -0.4361  0.1430
 8446SOL    HW126779   2.299   4.074   8.657  0.7469 -0.3804 -0.2075
 8446SOL    HW226780   2.228   3.951   8.712 -0.7774 -0.0535 -1.3728
 8447SOL     OW26781   7.419   0.901  11.571  0.0359  0.2340 -0.2631
 8447SOL    HW126782   7.510   0.926  11.555 -0.9456  3.5296 -1.3400
 8447SOL    HW226783   7.381   0.892  11.484 -0.9770  0.0236  0.1915
 8448SOL     OW26784   2.327   6.788   1.338 -0.1592  0.5126  0.0144
 8448SOL    HW126785   2.354   6.782   1.246  1.0081  0.2392  0.3688
 8448SOL    HW226786   2.257   6.723   1.346  1.1204 -0.9535 -0.2086
 8449SOL     OW26787   1.949   5.183   9.255  0.1772  0.1786 -0.6319
 8449SOL    HW126788   2.026   5.141   9.216 -0.6483 -0.7600 -1.2843
 8449SOL    HW226789   1.985   5.237   9.326  1.3972 -0.5336 -0.6801
 8450SOL     OW26790   0.502   2.894   4.300 -0.0953 -0.0233 -0.5539
 8450SOL    HW126791   0.483   2.907   4.393 -0.3153 -2.0696 -0.2638
 8450SOL    HW226792   0.423   2.924   4.255 -0.5907 -0.4215  0.0354
 8451SOL     OW26793   6.471   0.500  10.158  0.0399 -0.2333 -0.3313
 8451SOL    HW126794   6.472   0.546  10.242 -0.4485 -1.3406  0.3075
 8451SOL    HW226795   6.485   0.408  10.182  1.7582 -0.3575 -1.6239
 8452SOL     OW26796   7.350   1.430   1.691  0.1681 -0.9516 -0.0511
 8452SOL    HW126797   7.283   1.472   1.745  0.2266 -1.0696  0.1111
 8452SOL    HW226798   7.301   1.385   1.623  0.1447  1.1216 -1.5134
 8453SOL     OW26799   7.459   1.348   2.138 -0.6467  0.4326  0.2243
 8453SOL    HW126800   7.498   1.425   2.098 -0.2637 -0.0553 -0.3728
 8453SOL    HW226801   7.530   1.283   2.139 -1.3492 -0.3735 -0.5890
 8454SOL     OW26802   2.857   4.746   9.594  0.1232  0.4792 -0.0235
 8454SOL    HW126803   2.928   4.702   9.548 -0.5550 -1.2992  0.5485
 8454SOL    HW226804   2.805   4.675   9.632 -0.7171  1.7972  1.4237
 8455SOL     OW26805   7.129   3.963  11.146 -0.2585 -0.1944  0.0372
 8455SOL    HW126806   7.074   3.928  11.216 -0.4834 -0.6369 -0.3551
 8455SOL    HW226807   7.102   3.915  11.068  1.0382 -0.8116 -0.0612
 8456SOL     OW26808   7.089   0.975   2.512  0.1170  0.0104  0.0250
 8456SOL    HW126809   7.014   0.925   2.543 -0.7024  0.8141 -0.6260
 8456SOL    HW226810   7.055   1.063   2.497  1.2032  0.4007 -0.2419
 8457SOL     OW26811   6.816   5.039   8.617  0.2318 -0.0147  0.1487
 8457SOL    HW126812   6.754   4.967   8.610  0.5782 -0.1059 -3.6123
 8457SOL    HW226813   6.779   5.109   8.564  1.5266  1.3613  0.9595
 8458SOL     OW26814   4.389   2.819   0.355 -0.7089 -0.1855  0.3956
 8458SOL    HW126815   4.463   2.877   0.338 -1.4762  0.2607 -1.6247
 8458SOL    HW226816   4.428   2.733   0.372  0.2848  0.2000  0.0811
 8459SOL     OW26817   6.663   5.556   4.885 -0.7913 -0.1321 -0.1126
 8459SOL    HW126818   6.755   5.530   4.886 -0.5655  0.5480 -1.0326
 8459SOL    HW226819   6.623   5.508   4.957  0.3426 -0.2297  0.4720
 8460SOL     OW26820   5.936   7.267   6.280 -0.3398  0.1343 -0.3241
 8460SOL    HW126821   5.938   7.197   6.346 -0.4498  1.0319  0.6472
 8460SOL    HW226822   5.904   7.344   6.327  1.1686  1.2273 -1.0133
 8461SOL     OW26823   7.733   2.015   0.369  0.2568  0.0099 -0.2971
 8461SOL    HW126824   7.777   1.934   0.344 -0.0052 -0.2840  0.1703
 8461SOL    HW226825   7.675   1.989   0.441 -1.7540  0.0888 -1.8042
 8462SOL     OW26826   4.671   2.756   3.472 -0.4078 -0.3676 -0.5966
 8462SOL    HW126827   4.625   2.740   3.390 -1.8920 -1.9063  0.4578
 8462SOL    HW226828   4.705   2.670   3.497  1.8725  0.4681 -0.6219
 8463SOL     OW26829   6.705   4.874   6.947  0.3076  0.4164 -0.1246
 8463SOL    HW126830   6.739   4.952   6.903  1.1746  1.0666  1.6275
 8463SOL    HW226831   6.616   4.864   6.911  0.8706  1.0295 -1.8213
 8464SOL     OW26832   2.215   1.248   7.673  0.2012 -0.0163  0.4945
 8464SOL    HW126833   2.243   1.246   7.581 -0.4521  0.1002  0.2855
 8464SOL    HW226834   2.296   1.240   7.723  0.6099  0.3548 -0.0927
 8465SOL     OW26835   2.435   4.042  10.525  0.1592 -0.1959  0.3692
 8465SOL    HW126836   2.521   4.083  10.525  0.3997 -0.6675 -0.8329
 8465SOL    HW226837   2.451   3.951  10.500 -0.8207  0.0970 -1.5653
 8466SOL     OW26838   3.510   5.349   5.826 -0.3582  0.6908  0.4139
 8466SOL    HW126839   3.559   5.422   5.862  0.8884 -0.3521  0.8982
 8466SOL    HW226840   3.504   5.286   5.898  1.4110 -1.0473 -0.8748
 8467SOL     OW26841   4.891   7.039   0.553 -0.1671 -0.5066 -0.3636
 8467SOL    HW126842   4.970   7.017   0.601 -0.2122 -0.1262 -0.1125
 8467SOL    HW226843   4.917   7.111   0.495 -0.5862  0.3292  0.4772
 8468SOL     OW26844   3.621   7.110   7.713  0.4693 -0.1541 -0.7185
 8468SOL    HW126845   3.555   7.077   7.774  0.2631  1.7224  0.1392
 8468SOL    HW226846   3.588   7.085   7.626 -0.9457 -0.0089 -0.2493
 8469SOL     OW26847   1.071   0.541   9.650 -0.1632 -0.1299  1.0504
 8469SOL    HW126848   1.117   0.583   9.722 -0.4225 -2.1805  2.5071
 8469SOL    HW226849   0.981   0.530   9.682 -1.8121  3.5497 -1.6183
 8470SOL     OW26850   7.367   6.797   7.804  0.0178 -0.1144 -0.5556
 8470SOL    HW126851   7.419   6.807   7.883 -0.7885  0.0311 -0.0309
 8470SOL    HW226852   7.354   6.702   7.796 -0.5202 -0.0882 -0.0875
 8471SOL     OW26853   7.669   1.810   8.325 -0.4934  0.2782  0.5306
 8471SOL    HW126854   7.666   1.777   8.415 -1.1836 -1.0567  0.0432
 8471SOL    HW226855   7.645   1.903   8.333  0.0405  0.3351  1.7756
 8472SOL     OW26856   1.379   4.613   1.339 -0.0648  0.3236 -0.1288
 8472SOL    HW126857   1.400   4.703   1.364  2.4174  0.0143 -0.8847
 8472SOL    HW226858   1.433   4.559   1.397  1.8448 -0.5244 -2.5422
 8473SOL     OW26859   4.085   0.654   6.141 -0.2265 -0.2658 -0.3992
 8473SOL    HW126860   4.064   0.578   6.196 -0.3288 -0.1292 -0.2477
 8473SOL    HW226861   4.000   0.691   6.119 -0.1574  0.2256  0.1247
 8474SOL     OW26862   3.525   0.829   8.673  0.4330 -0.3958  0.1537
 8474SOL    HW126863   3.470   0.835   8.751  1.1753  0.1633  0.6576
 8474SOL    HW226864   3.615   0.837   8.707  0.8939 -2.0668 -0.5382
 8475SOL     OW26865   6.715   5.736  10.004  0.0869  0.5015  0.0999
 8475SOL    HW126866   6.720   5.648   9.968 -0.5522  0.8817 -0.9699
 8475SOL    HW226867   6.797   5.748  10.052 -0.3143 -1.0769  1.2487
 8476SOL     OW26868   5.076   2.526   6.272 -0.2424 -0.3057  0.8945
 8476SOL    HW126869   5.137   2.453   6.262  1.6449  1.0175  1.9686
 8476SOL    HW226870   5.133   2.603   6.277 -2.1686  1.3679 -0.9568
 8477SOL     OW26871   6.618   3.907   9.446  0.1182  0.4566  0.4998
 8477SOL    HW126872   6.590   3.848   9.517  2.8120 -2.1016 -0.3185
 8477SOL    HW226873   6.648   3.986   9.491  1.3074 -0.9115  2.2824
 8478SOL     OW26874   6.121   1.308  11.075  0.5807  0.4185 -0.2866
 8478SOL    HW126875   6.188   1.311  11.144 -0.1944  0.2650  0.4977
 8478SOL    HW226876   6.062   1.238  11.102 -0.9039  1.7263  0.0128
 8479SOL     OW26877   6.603   0.856  11.563 -0.0393  0.0761  0.1163
 8479SOL    HW126878   6.697   0.846  11.546  0.1535  2.4118 -0.5129
 8479SOL    HW226879   6.596   0.852  11.659  0.8748  1.0392  0.2347
 8480SOL     OW26880   0.591   4.823   5.282 -0.1873  0.7552  0.0200
 8480SOL    HW126881   0.657   4.827   5.351  1.0311  0.0315 -1.0521
 8480SOL    HW226882   0.628   4.874   5.210 -1.5023  1.6333 -0.0796
 8481SOL     OW26883   1.676   5.772   5.294  0.6242 -0.1111  0.2569
 8481SOL    HW126884   1.699   5.862   5.270  1.0793 -0.5894 -1.2522
 8481SOL    HW226885   1.700   5.720   5.217 -1.6672 -1.2395  0.2060
 8482SOL     OW26886   7.832   6.126   9.152 -0.4507  0.8681 -0.2321
 8482SOL    HW126887   7.833   6.045   9.203  1.1861  1.1665  0.2743
 8482SOL    HW226888   7.743   6.132   9.118 -1.0275 -0.3605  0.9623
 8483SOL     OW26889   4.952   3.213   0.425 -0.6374  0.4547  0.0219
 8483SOL    HW126890   4.920   3.252   0.344  0.5285 -0.5364 -0.9408
 8483SOL    HW226891   4.916   3.125   0.426 -0.6962  0.4819  0.6158
 8484SOL     OW26892   1.937   4.710   8.709  0.2452  0.3405  0.6699
 8484SOL    HW126893   1.878   4.684   8.638  0.7726  0.1775  0.2844
 8484SOL    HW226894   1.893   4.784   8.752  0.2137  0.8463 -0.2194
 8485SOL     OW26895   4.124   2.288   7.515 -0.1264 -0.4310  0.6729
 8485SOL    HW126896   4.145   2.222   7.582  1.6173  1.0274  1.6536
 8485SOL    HW226897   4.136   2.372   7.560 -1.1209  0.5870 -0.8749
 8486SOL     OW26898   4.262   1.771   5.159 -0.6079 -0.0534  0.2062
 8486SOL    HW126899   4.206   1.703   5.196  0.1359 -0.9524 -0.2937
 8486SOL    HW226900   4.339   1.725   5.128 -1.4961  0.5009 -3.2185
 8487SOL     OW26901   3.945   7.570   0.148 -0.3143  0.2231  0.0155
 8487SOL    HW126902   3.948   7.599   0.057 -0.1214 -1.5313 -0.5771
 8487SOL    HW226903   3.871   7.509   0.151 -0.9631  1.0283  1.2935
 8488SOL     OW26904   4.627   3.901   1.426  0.1869 -0.1698  0.0359
 8488SOL    HW126905   4.673   3.854   1.496  1.2037  1.0998  0.2862
 8488SOL    HW226906   4.654   3.993   1.439  0.9994 -0.0005 -2.4763
 8489SOL     OW26907   2.877   5.091  12.217  0.3107  0.1731 -0.1840
 8489SOL    HW126908   2.918   5.013  12.254  1.4477  0.7179 -0.2485
 8489SOL    HW226909   2.862   5.148  12.292  0.0279  0.1394 -0.2139
 8490SOL     OW26910   3.075   2.988  11.357  0.1542  0.4809  0.2778
 8490SOL    HW126911   3.134   3.050  11.400  1.2076 -0.4883  0.2810
 8490SOL    HW226912   3.117   2.969  11.273  0.2555 -0.7991  0.5923
 8491SOL     OW26913   1.797   4.256   1.162  0.3278 -0.1548 -0.1080
 8491SOL    HW126914   1.867   4.297   1.112  1.0487  0.3329  1.2749
 8491SOL    HW226915   1.754   4.198   1.098  0.6333  1.1068 -1.5249
 8492SOL     OW26916   4.234   2.407   9.263 -0.0777  0.4076 -0.4979
 8492SOL    HW126917   4.226   2.324   9.311  0.1443  0.9046  0.4309
 8492SOL    HW226918   4.328   2.419   9.252 -0.0861  0.7838 -0.1753
 8493SOL     OW26919   1.105   7.024   4.581 -0.3792  0.3827  0.1120
 8493SOL    HW126920   1.151   6.987   4.506 -0.6051 -1.2140  0.7250
 8493SOL    HW226921   1.013   7.025   4.555 -0.2804  1.4366 -0.2516
 8494SOL     OW26922   1.190   0.112   0.175  0.3467 -0.1305 -0.8017
 8494SOL    HW126923   1.280   0.144   0.174 -0.4943  2.4856 -0.3907
 8494SOL    HW226924   1.154   0.141   0.091 -0.8868  1.5497  0.2315
 8495SOL     OW26925   2.615   4.936   2.570 -0.0125  0.1559 -0.2903
 8495SOL    HW126926   2.572   4.947   2.655 -0.0840  1.5769 -0.4904
 8495SOL    HW226927   2.674   4.861   2.583  0.1734  0.5156  1.0900
 8496SOL     OW26928   6.806   0.125   9.821 -0.1890  0.1052 -0.8876
 8496SOL    HW126929   6.857   0.120   9.902 -2.2836  2.0692  0.6925
 8496SOL    HW226930   6.872   0.137   9.752  1.5920  0.3234  0.7551
 8497SOL     OW26931   0.898   6.477   4.845  0.1894 -0.9236 -0.2815
 8497SOL    HW126932   0.913   6.428   4.925 -0.2970 -1.1093 -0.3005
 8497SOL    HW226933   0.982   6.520   4.827  0.3328 -0.9756  0.2572
 8498SOL     OW26934   3.210   7.864   1.387 -0.0067 -0.3587 -0.0374
 8498SOL    HW126935   3.163   7.896   1.310  0.2067 -0.1283 -0.0721
 8498SOL    HW226936   3.263   7.938   1.416  1.1402 -0.9267 -0.6129
 8499SOL     OW26937   4.914   5.595   5.507 -0.7731  0.0479  0.3439
 8499SOL    HW126938   4.818   5.598   5.504 -0.8596 -0.1830  1.8023
 8499SOL    HW226939   4.935   5.596   5.601  0.5643 -2.1331  0.1655
 8500SOL     OW26940   0.136   0.073   9.543  0.3229 -0.3083  0.0822
 8500SOL    HW126941   0.119   0.112   9.628  0.4697 -0.0172 -0.0203
 8500SOL    HW226942   0.225   0.038   9.550 -0.0860 -1.2924  0.4196
 8501SOL     OW26943   6.369   3.178   9.072 -0.2313 -0.3609 -0.2897
 8501SOL    HW126944   6.443   3.164   9.013  0.8418 -0.8293  1.1248
 8501SOL    HW226945   6.370   3.102   9.130 -0.9109  0.3644  0.6903
 8502SOL     OW26946   2.291   1.608   8.605  0.2872 -0.0770  0.0001
 8502SOL    HW126947   2.306   1.547   8.677 -1.0334 -0.6069 -0.1583
 8502SOL    HW226948   2.372   1.660   8.602  0.4460 -0.1373  1.7508
 8503SOL     OW26949   7.779   5.130   5.496  0.3633  0.2964 -0.5827
 8503SOL    HW126950   7.866   5.095   5.475  0.0212 -0.6578 -0.4640
 8503SOL    HW226951   7.794   5.188   5.571  0.6696 -1.2038  0.5778
 8504SOL     OW26952   3.690   7.492   6.578  0.1331  0.1479  0.0618
 8504SOL    HW126953   3.713   7.436   6.653  1.3345  0.1757 -0.2719
 8504SOL    HW226954   3.672   7.578   6.617 -0.0557 -0.0379  0.3941
 8505SOL     OW26955   1.603   1.491   1.198  0.1992 -0.9171 -0.3929
 8505SOL    HW126956   1.530   1.442   1.161 -0.8621  0.1234  0.2954
 8505SOL    HW226957   1.594   1.481   1.292  0.3083  0.1053 -0.2606
 8506SOL     OW26958   1.058   0.063   3.842  0.0154  0.2501  0.1205
 8506SOL    HW126959   1.120   0.033   3.775 -0.8316  0.6786 -0.8852
 8506SOL    HW226960   1.063   0.159   3.838 -0.4830  0.2844  0.2423
 8507SOL     OW26961   6.333   1.376   3.474  0.1478  0.0723  0.5311
 8507SOL    HW126962   6.330   1.295   3.525 -1.6404 -0.5983 -0.5403
 8507SOL    HW226963   6.370   1.441   3.534 -1.0895 -0.8653  2.4106
 8508SOL     OW26964   1.926   6.106   5.685  0.5807  0.1285  0.0100
 8508SOL    HW126965   1.938   6.201   5.681 -2.3089  0.5583 -1.6179
 8508SOL    HW226966   1.925   6.086   5.779  0.1149  1.9326  0.4325
 8509SOL     OW26967   7.601   3.922   8.050 -0.2659  0.1056 -0.2123
 8509SOL    HW126968   7.560   3.996   8.095 -0.4526 -0.1731  0.0825
 8509SOL    HW226969   7.545   3.847   8.071  0.2725 -0.2415  0.0233
 8510SOL     OW26970   0.177   5.888   2.811 -0.3513 -0.0283  0.0733
 8510SOL    HW126971   0.188   5.809   2.864  1.4627  0.2511  0.1665
 8510SOL    HW226972   0.169   5.856   2.722  0.8067 -0.3336  0.0611
 8511SOL     OW26973   0.169   0.993  11.190  0.0387  0.2968  0.3297
 8511SOL    HW126974   0.244   1.052  11.190  0.3835 -0.1025  1.6743
 8511SOL    HW226975   0.143   0.986  11.098 -0.2761  2.8270  0.1682
 8512SOL     OW26976   6.748   2.970  11.103  0.2835  0.6519 -0.1657
 8512SOL    HW126977   6.668   2.920  11.090  0.1507  1.3198 -2.2167
 8512SOL    HW226978   6.719   3.055  11.135  0.2246  0.6624 -0.2481
 8513SOL     OW26979   5.036   0.844   2.241 -0.3942 -0.5891 -0.4931
 8513SOL    HW126980   5.080   0.898   2.306 -1.6665 -0.9306  0.7068
 8513SOL    HW226981   5.052   0.754   2.270 -1.4383 -0.7325 -0.2892
 8514SOL     OW26982   5.492   7.897   3.075 -0.0102  0.2870  0.3410
 8514SOL    HW126983   5.503   7.990   3.057 -3.6246  0.8437  0.3536
 8514SOL    HW226984   5.486   7.856   2.989 -0.0561  0.3075  0.3348
 8515SOL     OW26985   7.829   6.798   3.030  0.5706  0.3956 -0.6167
 8515SOL    HW126986   7.812   6.892   3.037 -0.8225  0.3659 -2.7475
 8515SOL    HW226987   7.744   6.757   3.049  0.2699 -0.2184 -3.0004
 8516SOL     OW26988   5.327   0.958   7.620  0.1055 -0.4701  0.0247
 8516SOL    HW126989   5.350   1.027   7.682  0.2864  0.3624 -0.9466
 8516SOL    HW226990   5.326   1.001   7.535 -2.0768 -1.1198 -0.3611
 8517SOL     OW26991   4.619   3.175   1.350 -0.0134 -0.4840  0.1305
 8517SOL    HW126992   4.562   3.249   1.329 -0.5766 -0.8950  0.1889
 8517SOL    HW226993   4.702   3.215   1.377 -0.4895  0.1336  0.6829
 8518SOL     OW26994   7.279   2.150   9.852  0.0873 -0.0517 -1.4015
 8518SOL    HW126995   7.326   2.206   9.913 -0.2455 -1.2155 -0.0210
 8518SOL    HW226996   7.334   2.147   9.774  0.6783  1.2171 -1.0597
 8519SOL     OW26997   2.376   3.607  11.525  0.1761 -0.2754 -0.2804
 8519SOL    HW126998   2.388   3.532  11.467  1.2480 -0.3720  0.0480
 8519SOL    HW226999   2.464   3.628  11.556 -0.4132 -0.5950  1.7705
 8520SOL     OW27000   6.474   0.892   3.456 -0.0036  0.1614  0.5250
 8520SOL    HW127001   6.429   0.939   3.386  1.8182 -0.3318 -1.0857
 8520SOL    HW227002   6.440   0.930   3.537 -2.0992  0.8349 -0.6119
 8521SOL     OW27003   2.450   0.665   0.578 -0.4957 -0.2989  0.2501
 8521SOL    HW127004   2.507   0.657   0.502  0.9827  2.9880  0.8542
 8521SOL    HW227005   2.366   0.693   0.542 -0.5334 -1.0754 -0.3012
 8522SOL     OW27006   5.082   4.866   9.363  0.2844  0.1751  0.2197
 8522SOL    HW127007   5.008   4.881   9.422 -0.3288  0.6767 -0.6501
 8522SOL    HW227008   5.151   4.831   9.419 -0.4915  0.0437  1.1136
 8523SOL     OW27009   6.011   0.507   0.891  0.4759  0.1625  0.0820
 8523SOL    HW127010   6.032   0.543   0.977  0.6095 -0.6311  0.3874
 8523SOL    HW227011   6.089   0.457   0.866 -0.4203 -1.5229  0.5377
 8524SOL     OW27012   3.287   1.861   2.050  0.1160  0.1790  0.0879
 8524SOL    HW127013   3.241   1.916   2.113  1.4579  0.4230  0.9015
 8524SOL    HW227014   3.379   1.867   2.076  0.6183 -0.3041 -1.4556
 8525SOL     OW27015   3.185   4.807   8.659 -0.6824 -0.2468  0.2016
 8525SOL    HW127016   3.096   4.795   8.692 -0.2895 -0.2291  1.3230
 8525SOL    HW227017   3.205   4.724   8.615 -1.2339 -0.2677 -0.0157
 8526SOL     OW27018   6.163   1.122   2.332  0.2764  0.1282  0.4030
 8526SOL    HW127019   6.205   1.191   2.383 -0.9806 -0.0620  1.7567
 8526SOL    HW227020   6.074   1.117   2.367 -0.4540 -0.4425 -1.4099
 8527SOL     OW27021   3.248   5.727   5.840 -0.2694 -0.0335  0.0284
 8527SOL    HW127022   3.193   5.760   5.769  0.9259 -1.0558 -1.4494
 8527SOL    HW227023   3.233   5.632   5.840  1.7759 -0.4165 -0.7546
 8528SOL     OW27024   6.344   2.360  11.872  0.1202  0.0589 -0.2613
 8528SOL    HW127025   6.291   2.332  11.947 -0.5556 -0.7898 -1.0384
 8528SOL    HW227026   6.293   2.430  11.832  0.2555  0.1862 -0.2141
 8529SOL     OW27027   5.377   2.313   4.937  0.4996 -0.5485 -0.5512
 8529SOL    HW127028   5.350   2.312   4.846 -0.3790 -1.0465 -0.2997
 8529SOL    HW227029   5.367   2.222   4.966  0.6308 -0.3669  0.0831
 8530SOL     OW27030   0.612   2.224   4.410  0.6846 -0.5459  0.1479
 8530SOL    HW127031   0.603   2.186   4.323 -0.7068  1.1288 -0.5104
 8530SOL    HW227032   0.606   2.319   4.395 -0.5603 -0.2530  2.1619
 8531SOL     OW27033   4.997   7.081   1.680 -0.2784 -0.1049 -0.4465
 8531SOL    HW127034   4.905   7.109   1.677 -0.1168  0.5452  0.3044
 8531SOL    HW227035   5.007   7.040   1.766  0.4522  1.0029  0.0130
 8532SOL     OW27036   7.044   0.762   8.798  0.0628  0.1786  0.5254
 8532SOL    HW127037   6.998   0.841   8.825 -0.0054  0.1277  0.5582
 8532SOL    HW227038   7.086   0.786   8.715 -2.4220 -0.6224 -1.1066
 8533SOL     OW27039   2.547   2.155   4.225 -0.0023  0.5158 -0.4755
 8533SOL    HW127040   2.622   2.107   4.188 -0.0488  2.0978 -2.8609
 8533SOL    HW227041   2.525   2.108   4.305  2.4426 -1.0266 -0.6199
 8534SOL     OW27042   7.787   2.982   6.499  0.3642 -0.1051 -0.5819
 8534SOL    HW127043   7.705   2.949   6.535 -0.0670 -1.2376 -2.4977
 8534SOL    HW227044   7.772   2.989   6.405  2.3619 -0.0554 -0.9461
 8535SOL     OW27045   5.394   2.098   5.360 -0.0852  0.0945  0.2900
 8535SOL    HW127046   5.390   2.187   5.396 -1.0902  0.1139  0.1784
 8535SOL    HW227047   5.452   2.051   5.419  1.0509  1.0050 -0.0775
 8536SOL     OW27048   5.477   0.506   1.955  0.0137  0.4605 -0.1697
 8536SOL    HW127049   5.536   0.480   1.884  0.2959  0.6845 -0.0233
 8536SOL    HW227050   5.457   0.598   1.937 -1.5353 -0.0292 -1.0707
 8537SOL     OW27051   4.751   4.286   2.575  0.0938  0.0145 -0.1831
 8537SOL    HW127052   4.720   4.236   2.499 -0.6297  2.1391 -1.3720
 8537SOL    HW227053   4.704   4.249   2.649  0.1243 -1.5099 -0.8730
 8538SOL     OW27054   2.577   4.063   1.633  0.2433 -0.5713  0.8054
 8538SOL    HW127055   2.663   4.021   1.636  0.0573 -1.0915 -0.5595
 8538SOL    HW227056   2.563   4.084   1.541 -0.6603  0.4546  1.1481
 8539SOL     OW27057   7.548   5.481   3.166 -0.0208  0.0956  0.1659
 8539SOL    HW127058   7.472   5.480   3.225 -1.0087  0.5004 -1.0548
 8539SOL    HW227059   7.568   5.389   3.151 -0.0310 -0.0126  0.7855
 8540SOL     OW27060   2.307   1.393   0.135  0.8287  0.3106  0.0497
 8540SOL    HW127061   2.389   1.440   0.119  1.2821 -1.1512 -2.3775
 8540SOL    HW227062   2.333   1.303   0.150 -0.2801  0.0501  0.5118
 8541SOL     OW27063   4.156   2.823   7.367 -0.2156  0.3017  0.2697
 8541SOL    HW127064   4.220   2.888   7.396  1.5413 -0.4875 -1.5731
 8541SOL    HW227065   4.191   2.791   7.284 -2.9428 -0.3407 -0.7279
 8542SOL     OW27066   4.364   7.729   8.433 -0.4166  0.6945  0.0075
 8542SOL    HW127067   4.434   7.721   8.499 -1.1563 -0.8502  0.6574
 8542SOL    HW227068   4.409   7.720   8.349  0.5554  2.7540  0.2528
 8543SOL     OW27069   6.673   7.289   1.485 -0.3363 -0.6993 -0.4695
 8543SOL    HW127070   6.643   7.368   1.531  1.1437  0.4582 -1.4151
 8543SOL    HW227071   6.592   7.246   1.458 -1.2289  1.4860 -1.5555
 8544SOL     OW27072   1.573   7.473  12.069  0.7255  0.2081  0.3575
 8544SOL    HW127073   1.481   7.464  12.044  0.3030  1.4199  1.3995
 8544SOL    HW227074   1.621   7.447  11.990 -0.5074  0.0122 -0.3587
 8545SOL     OW27075   4.971   2.962   9.886 -0.4566 -0.0586 -0.0315
 8545SOL    HW127076   5.003   2.875   9.912 -0.2918 -0.7713 -2.4112
 8545SOL    HW227077   5.012   2.979   9.801 -2.1697  1.4023 -0.6351
 8546SOL     OW27078   0.069   5.869   0.208 -0.1084  0.2433  0.5593
 8546SOL    HW127079   0.009   5.942   0.222 -1.0066 -0.1271 -1.1147
 8546SOL    HW227080   0.119   5.893   0.130  0.1865 -0.5442  0.4940
 8547SOL     OW27081   3.281   5.723   4.431 -0.8484  0.1348 -0.1569
 8547SOL    HW127082   3.222   5.695   4.361 -0.2073 -1.1421 -0.2260
 8547SOL    HW227083   3.265   5.661   4.502  1.8516 -1.6648 -0.9431
 8548SOL     OW27084   1.580   6.912   0.443  0.2229 -0.0606  0.3534
 8548SOL    HW127085   1.494   6.912   0.484  0.0138  1.4141 -0.0215
 8548SOL    HW227086   1.614   6.824   0.457 -0.5245 -0.0806  2.2183
 8549SOL     OW27087   5.790   7.014   0.682 -0.1367 -0.4676 -0.1205
 8549SOL    HW127088   5.749   7.041   0.765  0.4038  0.5125 -0.1688
 8549SOL    HW227089   5.754   7.074   0.617  0.7762 -0.1033 -0.2950
 8550SOL     OW27090   4.949   5.923   2.449  0.0004  0.4820 -0.1232
 8550SOL    HW127091   4.937   5.908   2.543 -0.4962 -0.2531 -0.2933
 8550SOL    HW227092   5.025   5.870   2.425  0.0776  0.6057 -0.1529
 8551SOL     OW27093   7.405   4.523  11.692 -0.3104  0.2613 -0.3617
 8551SOL    HW127094   7.447   4.603  11.659  0.8475 -0.6473 -1.2025
 8551SOL    HW227095   7.322   4.517  11.644 -0.8390  1.4115  0.3737
 8552SOL     OW27096   4.978   1.333   0.361  0.6151  0.3425  0.4405
 8552SOL    HW127097   5.032   1.412   0.360  1.5816 -0.3036 -0.0689
 8552SOL    HW227098   5.033   1.266   0.320 -0.3303 -0.5018  0.5174
 8553SOL     OW27099   1.893   2.035   1.833  0.3603  0.4371 -0.1817
 8553SOL    HW127100   1.816   2.018   1.777 -0.5377 -0.8823  1.3519
 8553SOL    HW227101   1.893   1.962   1.896  0.9642  2.1584  1.9250
 8554SOL     OW27102   4.393   6.049   8.741  0.0221 -0.0427 -0.2729
 8554SOL    HW127103   4.432   6.088   8.819  0.7657  1.8062 -1.5169
 8554SOL    HW227104   4.312   6.098   8.727  0.1252 -0.0564 -0.9355
 8555SOL     OW27105   3.562   0.339   3.581  0.1598  0.4787 -0.2674
 8555SOL    HW127106   3.655   0.351   3.564  0.1931  1.4343  0.5506
 8555SOL    HW227107   3.558   0.281   3.657  0.1340  1.9636  0.8916
 8556SOL     OW27108   1.761   3.524   4.828  0.4524  0.2258 -0.3638
 8556SOL    HW127109   1.823   3.455   4.805  0.0598 -0.7077  1.2662
 8556SOL    HW227110   1.811   3.605   4.815  1.0912 -0.3462 -1.7792
 8557SOL     OW27111   4.327   2.266  10.904 -0.0752 -0.3593 -0.0803
 8557SOL    HW127112   4.325   2.188  10.848  0.3103  0.2681 -0.9902
 8557SOL    HW227113   4.304   2.338  10.846  0.0615  0.2766  0.6361
 8558SOL     OW27114   6.585   7.768   7.051 -0.3071  0.0172  0.0935
 8558SOL    HW127115   6.540   7.775   6.967 -0.3246 -0.4522  0.0562
 8558SOL    HW227116   6.530   7.706   7.101  0.1334 -0.3269  0.1560
 8559SOL     OW27117   6.212   7.242   8.558  0.0809 -0.0073 -0.4907
 8559SOL    HW127118   6.249   7.210   8.476 -2.7436  0.7327 -2.1981
 8559SOL    HW227119   6.173   7.164   8.599 -0.0305 -0.0789 -0.7342
 8560SOL     OW27120   0.293   3.782  11.963 -0.5678 -0.3654  0.6908
 8560SOL    HW127121   0.252   3.755  11.880 -0.3291 -0.1724  0.5088
 8560SOL    HW227122   0.274   3.710  12.023  3.0223 -2.7410 -0.6787
 8561SOL     OW27123   2.073   3.596   0.506 -0.5518 -0.7800 -0.2597
 8561SOL    HW127124   2.096   3.619   0.416  0.4289 -1.0391 -0.0800
 8561SOL    HW227125   2.008   3.526   0.497 -0.3356 -0.9194 -0.7659
 8562SOL     OW27126   7.086   5.446   4.690  0.0275  0.1598  0.2258
 8562SOL    HW127127   7.167   5.473   4.647 -0.7890  1.4288 -0.5617
 8562SOL    HW227128   7.057   5.370   4.641 -0.7766  1.4581 -1.3875
 8563SOL     OW27129   7.158   6.462  10.435  0.8143 -0.5678 -0.3820
 8563SOL    HW127130   7.249   6.492  10.443  0.1610  1.7675 -1.2050
 8563SOL    HW227131   7.128   6.497  10.352 -0.4281 -2.6146 -0.8780
 8564SOL     OW27132   6.920   4.626  11.721  0.1668 -0.1865  0.4487
 8564SOL    HW127133   6.859   4.609  11.649 -0.0041  0.2291  0.4881
 8564SOL    HW227134   6.983   4.688  11.684 -1.3310  2.0275  1.3221
 8565SOL     OW27135   0.148   3.367   0.842  0.2221 -0.1918 -0.2961
 8565SOL    HW127136   0.143   3.441   0.902  0.7269  0.5128 -1.1012
 8565SOL    HW227137   0.075   3.310   0.868  0.4782  0.0459  1.0295
 8566SOL     OW27138   2.527   4.167   1.325 -0.4242  0.0606 -0.4087
 8566SOL    HW127139   2.494   4.080   1.303 -1.0941  0.0974  0.3600
 8566SOL    HW227140   2.488   4.225   1.260  0.1238 -0.2244 -0.9979
 8567SOL     OW27141   4.736   2.369   0.638  0.3965  0.4200 -0.3336
 8567SOL    HW127142   4.799   2.427   0.680 -0.3563  0.2188  1.1428
 8567SOL    HW227143   4.705   2.313   0.709  0.5486 -1.2993 -1.5739
 8568SOL     OW27144   7.555   4.736   1.912  0.1329 -0.3770  0.1466
 8568SOL    HW127145   7.482   4.750   1.851  2.8006  0.1171 -3.2232
 8568SOL    HW227146   7.566   4.820   1.956 -0.1434  0.1610 -0.7722
 8569SOL     OW27147   3.695   1.171   4.021  0.2613 -0.3650 -0.1728
 8569SOL    HW127148   3.649   1.247   3.986  2.1707  0.5915 -0.7115
 8569SOL    HW227149   3.632   1.130   4.081 -1.4473  0.5633 -1.2646
 8570SOL     OW27150   6.573   5.439   7.799  0.9877 -0.4561  0.2210
 8570SOL    HW127151   6.631   5.404   7.732 -0.3387 -0.8981 -0.7537
 8570SOL    HW227152   6.608   5.406   7.882  1.1987 -2.0472 -0.4661
 8571SOL     OW27153   6.695   7.720   7.353  0.5911  0.4828 -0.6842
 8571SOL    HW127154   6.645   7.673   7.286 -1.4528  0.9896  0.3934
 8571SOL    HW227155   6.752   7.653   7.392  0.7245 -0.1398 -1.9093
 8572SOL     OW27156   6.663   5.065   9.595  0.9269  0.1561 -0.0323
 8572SOL    HW127157   6.730   5.108   9.541 -0.0941 -0.8464 -2.2485
 8572SOL    HW227158   6.587   5.123   9.588  0.6523 -0.2044 -0.0427
 8573SOL     OW27159   4.107   4.203   1.601 -0.5454  0.3604 -0.4940
 8573SOL    HW127160   4.041   4.267   1.577 -1.3350 -0.6119 -0.9987
 8573SOL    HW227161   4.190   4.243   1.574 -0.8993  1.6297  0.2261
 8574SOL     OW27162   2.376   3.866   1.675 -0.1318  0.4995  0.0062
 8574SOL    HW127163   2.457   3.917   1.668  0.1010  0.1250 -0.0980
 8574SOL    HW227164   2.389   3.811   1.752 -0.7052  1.1534  0.5854
 8575SOL     OW27165   5.497   1.091   5.623 -0.4669  0.2196 -0.3565
 8575SOL    HW127166   5.483   1.179   5.658  0.4054 -0.8791  3.1458
 8575SOL    HW227167   5.454   1.034   5.686  1.0720 -1.9992 -1.2293
 8576SOL     OW27168   5.197   6.556   8.571  0.0257 -0.1711 -0.1759
 8576SOL    HW127169   5.202   6.532   8.664  3.2096 -1.4775 -0.5627
 8576SOL    HW227170   5.228   6.479   8.524 -1.2901  0.5370 -2.3599
 8577SOL     OW27171   4.367   3.410  12.231  0.5083 -0.1119  0.1513
 8577SOL    HW127172   4.330   3.439  12.148  0.2511  0.6557  0.5205
 8577SOL    HW227173   4.462   3.421  12.221  0.5613 -0.9568 -0.3786
 8578SOL     OW27174   7.870   6.587   8.291 -0.2914 -0.1836  0.1093
 8578SOL    HW127175   7.864   6.591   8.386  0.2286 -1.5631  0.2327
 8578SOL    HW227176   7.926   6.660   8.266 -1.5056  0.9846  0.7284
 8579SOL     OW27177   5.353   2.730   5.608 -0.1784  0.6322 -0.1054
 8579SOL    HW127178   5.307   2.760   5.530 -1.3085 -1.3553 -0.2579
 8579SOL    HW227179   5.443   2.760   5.596  0.3476 -1.7281 -3.4661
 8580SOL     OW27180   0.547   0.287  11.617  0.2065 -0.7823  0.4011
 8580SOL    HW127181   0.475   0.244  11.571 -1.0257  2.3766 -0.9795
 8580SOL    HW227182   0.503   0.343  11.682  1.6722 -1.3099  1.9254
 8581SOL     OW27183   0.339   4.495   1.695  0.2313  0.4253  0.0252
 8581SOL    HW127184   0.421   4.485   1.743 -0.0449  0.9716  0.6319
 8581SOL    HW227185   0.364   4.493   1.603  0.5772 -2.4712  0.0922
 8582SOL     OW27186   6.556   7.281   0.868 -0.7032 -0.2087 -0.0647
 8582SOL    HW127187   6.492   7.243   0.808  0.4928 -0.8682 -0.9785
 8582SOL    HW227188   6.521   7.367   0.889 -2.0742 -0.7018 -0.2185
 8583SOL     OW27189   3.196   3.022   4.831  0.2809  0.2545 -0.0843
 8583SOL    HW127190   3.177   3.067   4.748 -0.3658 -0.3593 -0.2793
 8583SOL    HW227191   3.249   3.085   4.880 -0.1410  1.0167 -0.5754
 8584SOL     OW27192   6.002   5.981   9.827 -0.2194  0.2693 -0.2138
 8584SOL    HW127193   6.078   6.007   9.775 -0.0408 -0.2686 -0.2244
 8584SOL    HW227194   5.953   6.062   9.839  0.5479  0.7032  0.1093
 8585SOL     OW27195   6.430   7.665  11.496  0.2139 -0.2869 -0.2203
 8585SOL    HW127196   6.453   7.699  11.583 -0.8074  0.1638 -0.1148
 8585SOL    HW227197   6.336   7.679  11.489  0.1373 -1.1187 -1.0601
 8586SOL     OW27198   4.543   5.730   7.654  0.7559 -0.4434 -0.0077
 8586SOL    HW127199   4.541   5.635   7.656 -0.9152 -0.5371 -2.4064
 8586SOL    HW227200   4.494   5.754   7.575  1.9528  2.3782 -0.0199
 8587SOL     OW27201   0.782   1.513   9.636  0.3783  0.1970 -0.0065
 8587SOL    HW127202   0.822   1.426   9.640  2.0782  0.9459  0.0498
 8587SOL    HW227203   0.777   1.533   9.543  1.1276  0.5268  0.0182
 8588SOL     OW27204   5.926   2.917   9.840  0.3800 -0.7979  0.4240
 8588SOL    HW127205   5.931   3.005   9.878  1.7031 -0.5421 -0.2555
 8588SOL    HW227206   5.970   2.861   9.903 -2.2083 -1.3859  1.8254
 8589SOL     OW27207   5.646   5.800  12.231  0.5234  0.3131 -0.4261
 8589SOL    HW127208   5.661   5.737  12.301  0.7227 -1.1331 -1.7245
 8589SOL    HW227209   5.611   5.877  12.276 -0.9238 -1.1407  1.0808
 8590SOL     OW27210   5.932   0.201   5.563  0.5442  0.7513 -0.3038
 8590SOL    HW127211   6.004   0.151   5.523 -1.6056 -0.0573 -3.6454
 8590SOL    HW227212   5.922   0.163   5.650  0.9621 -2.7003 -1.6036
 8591SOL     OW27213   0.210   0.599   4.988  0.7471  0.2901 -0.8068
 8591SOL    HW127214   0.180   0.686   5.016  1.1834  0.5182 -1.0444
 8591SOL    HW227215   0.139   0.566   4.933  0.0128 -0.0374  0.3062
 8592SOL     OW27216   5.683   1.971   5.018 -0.6471  0.4471  0.2035
 8592SOL    HW127217   5.629   1.956   4.941 -1.2013  1.0725  0.4538
 8592SOL    HW227218   5.687   2.067   5.025  1.1181  0.4299 -0.2386
 8593SOL     OW27219   0.772   1.760  11.808  0.1150 -0.2387  0.1557
 8593SOL    HW127220   0.743   1.851  11.802  1.1012  0.0284 -1.3639
 8593SOL    HW227221   0.711   1.711  11.753  0.1369 -0.3412  0.2215
 8594SOL     OW27222   6.001   0.716  12.142 -0.2360  0.0525 -0.6779
 8594SOL    HW127223   6.052   0.674  12.211 -0.4656  1.8997  0.6910
 8594SOL    HW227224   6.056   0.788  12.112 -1.4152  1.1644 -0.2197
 8595SOL     OW27225   5.470   1.691  10.674 -0.2755 -0.2286 -0.6419
 8595SOL    HW127226   5.521   1.764  10.710 -2.4292  0.9274  0.2633
 8595SOL    HW227227   5.517   1.613  10.702 -0.4179  0.6936  2.5734
 8596SOL     OW27228   6.045   1.694  12.416 -0.0928  0.3017 -0.3914
 8596SOL    HW127229   6.000   1.682  12.500  0.2236  2.3714  0.1328
 8596SOL    HW227230   6.005   1.630  12.358  0.0056 -1.5174  1.4441
 8597SOL     OW27231   4.396   3.806   5.117 -0.1460 -0.8917 -0.0230
 8597SOL    HW127232   4.375   3.896   5.094  1.9542 -0.1703  0.6070
 8597SOL    HW227233   4.394   3.759   5.034  0.8709  0.2415 -0.7342
 8598SOL     OW27234   3.160   6.388   7.089 -0.1285 -0.1341 -0.5189
 8598SOL    HW127235   3.187   6.427   7.172 -0.0888 -1.1455 -0.0393
 8598SOL    HW227236   3.067   6.369   7.101 -0.4260  0.8259 -1.1656
 8599SOL     OW27237   4.868   4.523   3.142  0.0173  0.6199 -0.2700
 8599SOL    HW127238   4.833   4.557   3.224 -0.7200 -1.9677  0.5718
 8599SOL    HW227239   4.926   4.592   3.110 -1.3940  2.6268  1.2560
 8600SOL     OW27240   7.564   0.821   4.358  0.3447 -0.0467  0.0720
 8600SOL    HW127241   7.650   0.826   4.316 -0.1726 -0.9375 -1.1451
 8600SOL    HW227242   7.521   0.747   4.316 -0.2354 -0.9614  2.1765
 8601SOL     OW27243   1.354   1.119  11.084 -0.1948  0.1770  0.0282
 8601SOL    HW127244   1.383   1.031  11.058 -1.3971 -0.1606 -0.2287
 8601SOL    HW227245   1.433   1.162  11.116  0.4089 -1.0208  0.1989
 8602SOL     OW27246   2.320   6.157   1.058 -0.3397 -0.1651 -0.3048
 8602SOL    HW127247   2.335   6.087   1.121 -0.2442  0.6821  0.6515
 8602SOL    HW227248   2.307   6.113   0.975 -0.1762 -1.3037  0.2578
 8603SOL     OW27249   5.493   4.020  12.035  0.5484  0.6026  0.2396
 8603SOL    HW127250   5.457   3.991  12.119  1.9225  1.0984  1.0472
 8603SOL    HW227251   5.552   3.949  12.009 -1.4002 -0.4867 -1.3752
 8604SOL     OW27252   7.146   4.259  10.543 -1.2502 -0.0975  0.3742
 8604SOL    HW127253   7.166   4.314  10.467  1.6335 -0.2448  0.9074
 8604SOL    HW227254   7.212   4.190  10.541 -0.5636  0.3064  3.3730
 8605SOL     OW27255   6.960   2.953   6.441 -0.3991 -0.0011  0.2409
 8605SOL    HW127256   7.045   2.965   6.482  0.2802  0.3931 -1.2310
 8605SOL    HW227257   6.956   2.859   6.420 -0.5438 -0.1099  0.7321
 8606SOL     OW27258   6.220   1.952   2.906 -0.3114 -0.4159 -0.1116
 8606SOL    HW127259   6.131   1.922   2.887  0.2677 -2.4247  0.0606
 8606SOL    HW227260   6.273   1.915   2.837  0.5209 -0.0061  0.2970
 8607SOL     OW27261   6.502   5.123   0.365  0.2488  0.4814 -0.1069
 8607SOL    HW127262   6.479   5.200   0.313  1.6465  1.3617  0.5127
 8607SOL    HW227263   6.578   5.086   0.322  0.1716  0.0145  0.1482
 8608SOL     OW27264   7.617   7.509   7.297  0.5741 -0.0914 -0.6998
 8608SOL    HW127265   7.583   7.490   7.384 -1.7459 -0.0189 -1.5373
 8608SOL    HW227266   7.628   7.604   7.296 -3.4249  0.5364 -1.7209
 8609SOL     OW27267   1.210   4.855   4.708  0.3186  0.4019 -0.1061
 8609SOL    HW127268   1.232   4.904   4.788  1.5781 -2.0199  1.1551
 8609SOL    HW227269   1.261   4.898   4.639  3.9641 -0.8804  1.5366
 8610SOL     OW27270   0.358   4.191   5.905  0.3947  0.4442 -0.2978
 8610SOL    HW127271   0.294   4.129   5.870  1.6748 -1.0210 -0.1546
 8610SOL    HW227272   0.311   4.235   5.976 -0.5045 -0.4772 -0.2886
 8611SOL     OW27273   3.764   5.522   0.601  0.5136  0.2634  0.3726
 8611SOL    HW127274   3.759   5.436   0.558 -3.6803  1.1090 -1.4310
 8611SOL    HW227275   3.776   5.502   0.694 -2.5753 -2.5999  0.3710
 8612SOL     OW27276   3.903   5.315   5.471 -0.1783  0.2478 -0.1703
 8612SOL    HW127277   3.834   5.352   5.527 -0.3418 -0.1827 -0.0886
 8612SOL    HW227278   3.933   5.237   5.518  1.3281  1.1694  0.4909
 8613SOL     OW27279   0.567   7.158   0.960  0.2993  0.1348 -0.3736
 8613SOL    HW127280   0.504   7.188   0.894 -0.8434 -1.8385 -0.2531
 8613SOL    HW227281   0.624   7.098   0.912 -0.5943 -1.3839  0.3998
 8614SOL     OW27282   2.066   2.953   5.643  0.2075 -0.3909  0.0449
 8614SOL    HW127283   2.116   2.895   5.700  0.2753  2.0664  2.7358
 8614SOL    HW227284   2.126   3.024   5.622 -0.5447 -0.0975 -1.1813
 8615SOL     OW27285   7.412   5.133   3.049 -0.7060 -0.0793 -0.6099
 8615SOL    HW127286   7.325   5.172   3.036 -1.0678 -1.0377 -1.2331
 8615SOL    HW227287   7.420   5.069   2.977  0.0682 -0.7633  0.0657
 8616SOL     OW27288   3.086   5.209   9.405  0.6717 -0.3583  0.4259
 8616SOL    HW127289   3.105   5.232   9.496 -1.9869 -1.1923  1.3048
 8616SOL    HW227290   3.042   5.124   9.411 -0.4326  0.0217 -1.5127
 8617SOL     OW27291   0.289   0.244   3.249  0.2370 -0.0247  0.4818
 8617SOL    HW127292   0.215   0.191   3.221 -0.5889  0.9551  0.7678
 8617SOL    HW227293   0.332   0.272   3.168  0.7658 -1.2266  0.3314
 8618SOL     OW27294   3.658   3.530  12.312 -0.0543 -0.5182 -0.0443
 8618SOL    HW127295   3.576   3.536  12.263  0.2075  0.0936 -0.4146
 8618SOL    HW227296   3.725   3.509  12.247  0.5114  1.5612 -0.1918
 8619SOL     OW27297   3.917   2.529   7.037 -0.2969  0.0621  0.1610
 8619SOL    HW127298   3.918   2.440   7.073 -2.3432  0.3190  1.0076
 8619SOL    HW227299   3.958   2.520   6.951  2.1499 -1.1121  1.3504
 8620SOL     OW27300   4.897   5.260   9.002  0.0327 -0.0584  0.2179
 8620SOL    HW127301   4.804   5.258   9.023 -0.0243 -0.6206 -0.0579
 8620SOL    HW227302   4.913   5.178   8.955  0.4868  0.4431 -0.5227
 8621SOL     OW27303   1.232   7.183   3.733 -0.1812 -0.4976  0.2927
 8621SOL    HW127304   1.256   7.091   3.746  0.5263 -0.3490  0.0884
 8621SOL    HW227305   1.300   7.218   3.674 -0.7687  0.0054 -0.1061
 8622SOL     OW27306   0.042   4.606  12.271 -0.3896 -0.1351  0.2311
 8622SOL    HW127307   0.023   4.534  12.330 -0.6900  0.1976  0.5416
 8622SOL    HW227308  -0.037   4.661  12.273  0.1155  0.5956  0.5733
 8623SOL     OW27309   6.216   4.608   6.488  0.1621  0.1108  0.1458
 8623SOL    HW127310   6.135   4.589   6.442  0.2580  0.3383 -0.1233
 8623SOL    HW227311   6.232   4.531   6.543 -0.5425  0.3127  0.6472
 8624SOL     OW27312   0.181   4.493   0.476  0.1238  0.0935 -0.0320
 8624SOL    HW127313   0.224   4.575   0.500 -0.3792  0.5141 -0.5233
 8624SOL    HW227314   0.136   4.513   0.394 -0.1298 -0.6360 -0.0793
 8625SOL     OW27315   1.906   1.691  10.920  0.0672 -0.0934 -0.1152
 8625SOL    HW127316   1.887   1.749  10.846  1.1395  0.9111  0.3547
 8625SOL    HW227317   1.891   1.603  10.887 -0.3167  0.3849 -1.2612
 8626SOL     OW27318   4.817   2.085  10.522 -0.1363  0.2387 -0.2709
 8626SOL    HW127319   4.832   2.102  10.429  0.3889 -0.7226 -0.3749
 8626SOL    HW227320   4.722   2.076  10.529 -0.0585 -2.0665 -1.1846
 8627SOL     OW27321   1.419   6.151  11.495 -0.0181  0.4348 -0.3428
 8627SOL    HW127322   1.391   6.243  11.501 -1.3984  0.0111 -0.0271
 8627SOL    HW227323   1.361   6.113  11.430 -0.9014 -0.7350  1.0944
 8628SOL     OW27324   4.434   2.268   7.650 -0.6652  0.0456 -0.2355
 8628SOL    HW127325   4.528   2.282   7.667 -1.2849  1.1913  3.0181
 8628SOL    HW227326   4.413   2.190   7.702 -1.6194  0.1037 -0.5288
 8629SOL     OW27327   7.884   1.299   8.849 -0.6225 -0.0055 -0.3588
 8629SOL    HW127328   7.904   1.334   8.936 -0.6578  2.5616 -1.3000
 8629SOL    HW227329   7.800   1.254   8.860 -0.0538 -0.7563  1.1564
 8630SOL     OW27330   1.156   0.500   5.654 -0.6891  0.5450 -0.0381
 8630SOL    HW127331   1.096   0.535   5.720  0.1013 -0.3058  1.1849
 8630SOL    HW227332   1.100   0.449   5.596 -1.1659 -0.4183  1.2118
 8631SOL     OW27333   6.927   1.870   0.281 -0.4948 -0.3567 -0.1914
 8631SOL    HW127334   6.861   1.932   0.312 -1.6241 -1.3714 -0.4998
 8631SOL    HW227335   6.981   1.920   0.220 -1.9376  0.0843 -1.1256
 8632SOL     OW27336   6.003   3.193   8.694 -0.1608 -0.3561  0.1175
 8632SOL    HW127337   5.945   3.231   8.759  1.3186  1.8808  0.2341
 8632SOL    HW227338   6.048   3.122   8.741  0.4258  0.8076  1.3839
 8633SOL     OW27339   5.643   7.526   0.087  0.2543 -0.2667 -0.6970
 8633SOL    HW127340   5.555   7.562   0.091  0.8459  1.2148 -0.5037
 8633SOL    HW227341   5.675   7.549   0.000  0.6132 -0.3987 -0.6039
 8634SOL     OW27342   7.118   2.433   0.990 -0.4391  0.7048  0.3196
 8634SOL    HW127343   7.046   2.373   0.970 -0.7323  1.0363  0.3688
 8634SOL    HW227344   7.196   2.389   0.956 -0.6788  0.3922  0.1685
 8635SOL     OW27345   5.040   0.771  10.473  0.0316 -0.1593 -0.1606
 8635SOL    HW127346   4.947   0.755  10.455 -0.1242 -0.7591  1.0500
 8635SOL    HW227347   5.046   0.866  10.483 -0.2626 -0.0265 -1.1960
 8636SOL     OW27348   5.874   5.273   9.935 -0.0812 -0.2957 -0.1716
 8636SOL    HW127349   5.828   5.309  10.011 -1.6427 -0.3666 -1.0444
 8636SOL    HW227350   5.943   5.218   9.972 -0.5629 -0.0173  1.1818
 8637SOL     OW27351   4.421   1.413   7.917  0.4489  0.6416  0.0283
 8637SOL    HW127352   4.427   1.426   8.011 -0.8766  1.7335 -0.0108
 8637SOL    HW227353   4.334   1.375   7.903  1.7707 -2.5597 -0.5093
 8638SOL     OW27354   1.681   7.459  11.807  0.1255 -0.4380 -0.3225
 8638SOL    HW127355   1.704   7.544  11.768 -0.1264 -0.8082 -1.3020
 8638SOL    HW227356   1.756   7.402  11.786 -0.4640 -0.9187 -1.2017
 8639SOL     OW27357   2.972   7.266   0.756 -0.4608 -0.2437 -0.0828
 8639SOL    HW127358   2.976   7.203   0.827 -1.0297 -1.2931 -0.9522
 8639SOL    HW227359   3.001   7.348   0.795 -2.4905 -0.3564  1.8533
 8640SOL     OW27360   7.300   3.306   8.671 -0.4225 -0.3297  0.0513
 8640SOL    HW127361   7.370   3.257   8.715  0.6040 -0.2969 -1.4383
 8640SOL    HW227362   7.297   3.268   8.583 -0.0979  1.7607 -0.9117
 8641SOL     OW27363   5.662   2.873   6.857 -0.2063 -0.2093 -0.2932
 8641SOL    HW127364   5.662   2.857   6.763  0.1795  0.1986 -0.3653
 8641SOL    HW227365   5.662   2.786   6.896 -0.6129 -0.3836 -0.6647
 8642SOL     OW27366   7.732   3.774   6.539 -0.2829 -0.1583 -0.3375
 8642SOL    HW127367   7.820   3.748   6.513 -0.5134 -1.6723  0.2802
 8642SOL    HW227368   7.675   3.706   6.504 -1.0632  0.1147  0.3600
 8643SOL     OW27369   2.522   7.642   9.537 -0.1405 -0.8464 -0.0626
 8643SOL    HW127370   2.457   7.697   9.494 -0.7499 -0.2809  1.5136
 8643SOL    HW227371   2.551   7.693   9.612 -0.3134 -2.4272  1.1302
 8644SOL     OW27372   3.674   2.126   9.033 -0.3957  0.0507 -0.1472
 8644SOL    HW127373   3.609   2.116   9.102 -1.5282 -0.5744 -1.2578
 8644SOL    HW227374   3.746   2.068   9.058 -1.4164 -1.2732 -0.1920
 8645SOL     OW27375   3.823   0.042   0.199  0.0313  0.6228 -0.5159
 8645SOL    HW127376   3.803   0.128   0.236  0.9693 -0.3443  2.6466
 8645SOL    HW227377   3.918   0.036   0.204 -0.1066 -1.2416  1.1782
 8646SOL     OW27378   1.574   4.258   1.978  0.4948  0.2086  0.7304
 8646SOL    HW127379   1.641   4.190   1.969  0.4423 -0.2897  3.3223
 8646SOL    HW227380   1.491   4.211   1.977  0.2788  0.5926 -0.4139
 8647SOL     OW27381   3.522   0.339  10.999 -0.0617  0.6624 -1.0219
 8647SOL    HW127382   3.448   0.317  10.942  0.3631 -0.7194 -1.0718
 8647SOL    HW227383   3.550   0.426  10.970 -0.7722  0.5958 -1.9402
 8648SOL     OW27384   0.201   5.354  11.105  0.1505 -0.4540 -0.3296
 8648SOL    HW127385   0.219   5.395  11.020  0.7022 -2.7780 -1.4324
 8648SOL    HW227386   0.119   5.306  11.092  1.0429 -2.1403 -0.1353
 8649SOL     OW27387   7.455   1.152   7.110 -0.7826  0.3258 -0.8282
 8649SOL    HW127388   7.447   1.069   7.158  0.4188 -0.2833 -1.6245
 8649SOL    HW227389   7.549   1.161   7.093 -0.9647  1.5550 -1.2781
 8650SOL     OW27390   1.533   6.604   5.287  0.2132  0.0837 -0.0708
 8650SOL    HW127391   1.476   6.534   5.320  0.1341  1.2820  2.6630
 8650SOL    HW227392   1.577   6.567   5.211 -1.4715 -2.1336 -0.0472
 8651SOL     OW27393   0.475   2.835   2.982 -0.3298  0.0041  0.5510
 8651SOL    HW127394   0.380   2.848   2.985 -0.3098  0.9220 -1.5249
 8651SOL    HW227395   0.497   2.806   3.071 -2.7320 -1.7334  0.6932
 8652SOL     OW27396   4.414   3.526   1.118 -0.4555  0.5594 -0.2778
 8652SOL    HW127397   4.497   3.554   1.156  0.1308  0.6274 -1.5631
 8652SOL    HW227398   4.429   3.528   1.024 -0.5872 -3.4301 -0.5303
 8653SOL     OW27399   5.730   7.333  11.554 -0.5402  0.3600  0.2786
 8653SOL    HW127400   5.811   7.358  11.510 -0.5987  0.4239  0.2079
 8653SOL    HW227401   5.667   7.401  11.531 -0.4649  0.6012  0.7637
 8654SOL     OW27402   1.114   0.267   0.588  0.4718  0.1241  0.4817
 8654SOL    HW127403   1.194   0.225   0.620 -0.1189 -0.6646  0.9626
 8654SOL    HW227404   1.108   0.348   0.639  0.4572 -0.2863  1.1459
 8655SOL     OW27405   6.233   5.219   7.274 -0.0364 -0.2013  0.2163
 8655SOL    HW127406   6.273   5.268   7.346 -0.6724  0.3396  0.2043
 8655SOL    HW227407   6.277   5.134   7.276  4.4719  1.6458 -2.5421
 8656SOL     OW27408   3.565   6.971   5.187 -0.1172 -0.0877  0.1810
 8656SOL    HW127409   3.626   7.019   5.131 -0.0461 -0.2898  0.0838
 8656SOL    HW227410   3.555   6.886   5.143 -0.1716 -0.1937  0.4004
 8657SOL     OW27411   4.889   3.339   5.491 -0.6857  0.5403 -0.5587
 8657SOL    HW127412   4.940   3.307   5.565  1.3472  1.0912 -1.6486
 8657SOL    HW227413   4.934   3.304   5.414 -1.6547  1.4929 -1.5918
 8658SOL     OW27414   7.628   6.587  11.157 -0.3319 -0.0012 -0.3771
 8658SOL    HW127415   7.623   6.647  11.230 -0.3181  0.7149 -0.9551
 8658SOL    HW227416   7.643   6.501  11.197 -0.0196  0.4251  0.4339
 8659SOL     OW27417   0.412   6.176   2.097  0.0927 -0.2931 -0.4059
 8659SOL    HW127418   0.403   6.131   2.012 -0.1887 -0.1041 -0.4775
 8659SOL    HW227419   0.453   6.111   2.154  1.3514 -0.0489 -0.9923
 8660SOL     OW27420   1.825   0.896   5.571  0.1873 -0.0676  0.4349
 8660SOL    HW127421   1.741   0.943   5.574  0.5912  0.6421  2.3290
 8660SOL    HW227422   1.884   0.956   5.525 -0.7099 -1.3751 -2.7028
 8661SOL     OW27423   0.672   3.914   5.248 -0.1616  0.0929 -0.0058
 8661SOL    HW127424   0.728   3.915   5.325 -2.0807 -1.0972  1.4748
 8661SOL    HW227425   0.605   3.849   5.267 -2.6598  2.1232 -1.2505
 8662SOL     OW27426   6.240   2.278   2.629  0.3704  0.0316  0.4774
 8662SOL    HW127427   6.336   2.281   2.633  0.5188  1.0274 -1.8321
 8662SOL    HW227428   6.221   2.219   2.555 -0.7870  0.1326  0.6734
 8663SOL     OW27429   4.570   3.064   5.137 -0.2231 -0.6606  0.2283
 8663SOL    HW127430   4.494   3.019   5.173  0.8435 -2.3039  0.5529
 8663SOL    HW227431   4.644   3.030   5.188  0.8074  0.3349 -0.5623
 8664SOL     OW27432   2.539   0.741   3.701 -0.3965  0.2469  0.2574
 8664SOL    HW127433   2.462   0.693   3.672 -1.8341  0.3697  3.4136
 8664SOL    HW227434   2.592   0.752   3.622 -2.4258 -1.9685 -1.5675
 8665SOL     OW27435   7.125   6.210   4.964 -0.7053 -0.5931  0.2641
 8665SOL    HW127436   7.201   6.153   4.959 -0.8849 -0.8484  0.4886
 8665SOL    HW227437   7.142   6.267   5.039 -0.3268 -0.0612 -0.2146
 8666SOL     OW27438   0.967   0.043   6.487  0.5167  0.5064  0.0557
 8666SOL    HW127439   0.951  -0.009   6.408 -1.5775  0.1092  0.6981
 8666SOL    HW227440   1.003  -0.018   6.550  0.7336  0.4769 -0.0966
 8667SOL     OW27441   0.460   5.538   8.807  0.1278 -0.4465  0.0843
 8667SOL    HW127442   0.369   5.512   8.796  0.1596 -0.1197 -1.0657
 8667SOL    HW227443   0.457   5.629   8.836  0.0936 -0.6038  0.5980
 8668SOL     OW27444   0.994   5.669   3.843 -0.2151  0.1345 -0.2820
 8668SOL    HW127445   0.988   5.599   3.908 -0.8761  0.2828 -0.1776
 8668SOL    HW227446   0.915   5.721   3.856  1.1502  2.0407  0.9478
 8669SOL     OW27447   0.962   3.220   2.628  0.2496  0.3910 -0.0096
 8669SOL    HW127448   0.869   3.200   2.636  0.6506 -0.8494  2.4757
 8669SOL    HW227449   0.999   3.146   2.580  0.3722 -0.6115  1.5766
 8670SOL     OW27450   0.147   6.906   7.480 -0.6376  0.2059 -0.4579
 8670SOL    HW127451   0.219   6.876   7.536 -1.5272  0.1896  0.7185
 8670SOL    HW227452   0.164   7.000   7.467 -0.5657  0.2659  0.0609
 8671SOL     OW27453   7.452   4.264   9.692  0.3483  0.0311  0.0597
 8671SOL    HW127454   7.478   4.276   9.783  0.0006  1.7432 -0.0454
 8671SOL    HW227455   7.505   4.189   9.662  0.3857 -0.6365  1.6717
 8672SOL     OW27456   6.157   0.175  11.982  0.0610 -0.1781 -0.3089
 8672SOL    HW127457   6.193   0.196  11.896  1.2222  1.4241  0.5148
 8672SOL    HW227458   6.062   0.179  11.971  0.2040  1.3109 -1.2409
 8673SOL     OW27459   1.210   1.041   1.982  0.0570 -0.5454  0.2452
 8673SOL    HW127460   1.120   1.008   1.982  0.3542 -1.5721  2.6377
 8673SOL    HW227461   1.254   0.989   1.915 -0.7269 -1.3219  0.3024
 8674SOL     OW27462   3.343   7.815   6.203  0.4037  0.8244  0.7900
 8674SOL    HW127463   3.381   7.881   6.145  1.5110  0.4257  1.0343
 8674SOL    HW227464   3.387   7.829   6.287 -0.0384  0.3813  1.0986
 8675SOL     OW27465   6.571   5.607   6.348 -0.4593  0.0253 -0.5481
 8675SOL    HW127466   6.618   5.531   6.383  0.0617  0.6708  0.1732
 8675SOL    HW227467   6.533   5.576   6.266 -0.2877 -1.0300 -0.2438
 8676SOL     OW27468   0.509   6.198   1.172  0.0752  0.1542 -0.9091
 8676SOL    HW127469   0.525   6.285   1.206  2.4143  0.5912 -2.8633
 8676SOL    HW227470   0.418   6.200   1.144 -1.1021  0.6365  2.4767
 8677SOL     OW27471   6.161   4.744   9.112  0.6607 -0.0485  0.0377
 8677SOL    HW127472   6.256   4.739   9.115  0.6733  0.0143 -0.1983
 8677SOL    HW227473   6.140   4.833   9.141  0.6538 -0.1787  0.4341
 8678SOL     OW27474   1.346   2.574   5.255  0.5331 -0.4168 -0.1200
 8678SOL    HW127475   1.355   2.661   5.294  0.7764  0.2507 -1.5806
 8678SOL    HW227476   1.258   2.546   5.279  0.0413  0.7132 -0.5153
 8679SOL     OW27477   7.359   6.899   0.616  0.1432  1.1063  0.1908
 8679SOL    HW127478   7.335   6.818   0.571 -0.3169  0.8802  0.8273
 8679SOL    HW227479   7.445   6.922   0.581 -0.0527  0.7455 -0.5389
 8680SOL     OW27480   6.739   4.441   5.568 -0.3108 -0.2354  0.1932
 8680SOL    HW127481   6.800   4.471   5.634 -0.8745  0.7217  0.2909
 8680SOL    HW227482   6.778   4.468   5.485  0.1426 -0.9847  0.1506
 8681SOL     OW27483   3.277   7.879   6.954  0.0811 -0.6974  0.3881
 8681SOL    HW127484   3.368   7.910   6.962 -0.0090 -0.2305 -0.2899
 8681SOL    HW227485   3.227   7.957   6.930 -0.9428 -0.3874  3.1068
 8682SOL     OW27486   6.127   7.505   6.791  0.4701 -0.1311 -0.0806
 8682SOL    HW127487   6.159   7.416   6.778  0.3773 -0.0929 -0.5955
 8682SOL    HW227488   6.146   7.524   6.883  1.5347 -0.2564 -0.2679
 8683SOL     OW27489   6.269   3.608   1.414  0.3761  0.0614  0.4364
 8683SOL    HW127490   6.202   3.600   1.481  0.5177  2.6799  1.0268
 8683SOL    HW227491   6.310   3.693   1.431  2.5404 -0.5843 -1.0837
 8684SOL     OW27492   6.826   6.197   5.703  0.7556  0.3881 -0.0451
 8684SOL    HW127493   6.868   6.244   5.631 -0.2976  1.6519  0.1325
 8684SOL    HW227494   6.763   6.139   5.660 -1.6840  2.9431 -0.1338
 8685SOL     OW27495   1.018   0.702  10.798 -0.1307 -0.0943 -0.5644
 8685SOL    HW127496   1.035   0.633  10.733  0.0007  0.6117 -1.2919
 8685SOL    HW227497   1.040   0.783  10.752 -1.1552  0.5014 -0.0160
 8686SOL     OW27498   0.585   4.927  10.592 -0.2935 -0.5519  0.5157
 8686SOL    HW127499   0.499   4.955  10.624  0.0451  2.3919 -0.7532
 8686SOL    HW227500   0.634   4.905  10.671 -1.7637 -0.9416  1.3622
 8687SOL     OW27501   5.330   6.097   8.383  0.3264  0.1473  0.2137
 8687SOL    HW127502   5.249   6.047   8.384  0.3090  0.1764  0.2481
 8687SOL    HW227503   5.382   6.061   8.454  0.4007  0.0333  0.1017
 8688SOL     OW27504   5.256   4.082   8.842 -0.4126 -0.1205  0.2513
 8688SOL    HW127505   5.197   4.007   8.838 -0.6314  0.1058 -1.9315
 8688SOL    HW227506   5.211   4.150   8.793  0.6917  0.7838  0.4543
 8689SOL     OW27507   7.884   4.129   9.177  0.3884  0.0520 -0.2077
 8689SOL    HW127508   7.875   4.159   9.267 -1.3987  3.3379 -1.3030
 8689SOL    HW227509   7.800   4.087   9.157  0.5726 -0.1801 -0.5089
 8690SOL     OW27510   7.277   6.301  10.646 -0.4472  0.1914  0.3657
 8690SOL    HW127511   7.227   6.276  10.568  0.0101  0.8615 -0.1524
 8690SOL    HW227512   7.229   6.374  10.683  0.2780  1.0370 -0.3034
 8691SOL     OW27513   6.573   3.505   7.713 -0.1954 -0.1044  0.3434
 8691SOL    HW127514   6.605   3.480   7.800  0.2249  0.2506  0.2924
 8691SOL    HW227515   6.645   3.485   7.654 -0.6203 -0.7164  0.0115
 8692SOL     OW27516   5.734   0.748   8.953  0.0466  0.9583  0.7946
 8692SOL    HW127517   5.737   0.805   9.029  1.0171 -0.0021  1.4929
 8692SOL    HW227518   5.723   0.660   8.988  1.8772  0.3320 -0.0613
 8693SOL     OW27519   5.267   7.867   8.189 -0.6369  0.1431  0.5549
 8693SOL    HW127520   5.299   7.903   8.106 -0.9312 -1.0064 -0.0811
 8693SOL    HW227521   5.321   7.790   8.204 -0.2253  0.6332  1.7330
 8694SOL     OW27522   6.992   3.263   8.309 -0.1589  0.3040 -0.1612
 8694SOL    HW127523   6.908   3.224   8.334 -0.3487  1.1270  0.5206
 8694SOL    HW227524   7.043   3.189   8.276 -0.7180 -0.4157  0.5281
 8695SOL     OW27525   4.010   3.965   1.163 -0.0755 -0.1586  0.3033
 8695SOL    HW127526   3.919   3.946   1.139 -0.3097 -1.1245  1.8053
 8695SOL    HW227527   4.003   4.025   1.238  0.5100 -0.5141  0.6501
 8696SOL     OW27528   0.124   0.084   5.555 -0.8860 -0.0254  0.1190
 8696SOL    HW127529   0.206   0.107   5.599 -0.0803  0.2325 -1.4580
 8696SOL    HW227530   0.144   0.003   5.508 -1.2960  0.4718 -0.9176
 8697SOL     OW27531   2.562   5.057   9.962  0.4737 -0.1005  0.4851
 8697SOL    HW127532   2.526   5.115  10.029 -1.1392 -0.7710  0.2464
 8697SOL    HW227533   2.487   5.032   9.908  1.5871 -0.2529 -1.0788
 8698SOL     OW27534   1.042   2.484   1.277  0.2007 -0.5211  0.0636
 8698SOL    HW127535   0.954   2.454   1.301  0.8264 -1.6383  1.1115
 8698SOL    HW227536   1.082   2.509   1.361  0.6071  0.8035 -0.4980
 8699SOL     OW27537   7.162   4.557   8.982  0.3014  0.2023  0.1462
 8699SOL    HW127538   7.252   4.589   8.989 -0.1823  1.1810  2.8273
 8699SOL    HW227539   7.108   4.630   9.011 -1.3916 -0.4446 -1.2237
 8700SOL     OW27540   4.493   4.039   1.229 -0.1447  0.1277  0.4819
 8700SOL    HW127541   4.558   3.996   1.284  0.4568 -0.4983 -0.6823
 8700SOL    HW227542   4.525   4.027   1.139 -2.2848 -0.9693 -0.2040
 8701SOL     OW27543   3.148   5.697   7.841  0.4754 -0.1765 -0.1934
 8701SOL    HW127544   3.102   5.775   7.872 -1.3073 -1.3903  0.3388
 8701SOL    HW227545   3.095   5.665   7.768  0.7868 -1.3000  0.0563
 8702SOL     OW27546   3.623   7.922   3.646 -0.3577 -0.3302  0.1870
 8702SOL    HW127547   3.715   7.902   3.630  0.0065  1.0062  0.4519
 8702SOL    HW227548   3.580   7.837   3.650  0.8777 -0.9796  0.1318
 8703SOL     OW27549   3.851   2.588   7.466 -0.0861 -0.4775 -0.3549
 8703SOL    HW127550   3.833   2.499   7.497  3.0057 -1.2027 -0.3142
 8703SOL    HW227551   3.928   2.616   7.516  0.8957  0.9828 -2.4940
 8704SOL     OW27552   6.951   7.230   6.182  0.1343 -0.0634  0.1893
 8704SOL    HW127553   6.967   7.142   6.146  0.5409 -0.3013  0.9433
 8704SOL    HW227554   6.977   7.289   6.111  0.5957 -0.5331 -0.0419
 8705SOL     OW27555   5.123   7.933   3.342 -0.5293  0.7681  0.1193
 8705SOL    HW127556   5.210   7.970   3.359 -0.4816  0.2132  1.1773
 8705SOL    HW227557   5.096   7.971   3.259  0.3077  1.7166  0.2723
 8706SOL     OW27558   5.004   4.712  11.497 -0.1897  0.5725  0.2348
 8706SOL    HW127559   5.039   4.773  11.433 -1.5700 -0.7185 -1.8519
 8706SOL    HW227560   5.077   4.697  11.558  1.3242  1.4549 -1.2727
 8707SOL     OW27561   3.600   4.029   4.067  0.0627 -0.1458 -0.2833
 8707SOL    HW127562   3.677   3.998   4.115  0.1343 -1.6750 -1.3197
 8707SOL    HW227563   3.586   3.963   4.000 -0.5013  1.5330 -1.8809
 8708SOL     OW27564   0.767   7.466   3.543 -0.0862 -0.3899 -0.3299
 8708SOL    HW127565   0.742   7.416   3.621 -0.2414 -0.8003 -0.6410
 8708SOL    HW227566   0.845   7.421   3.510  0.1222 -0.0719 -0.2776
 8709SOL     OW27567   1.205   7.881   3.613  0.4097 -0.6060 -0.0698
 8709SOL    HW127568   1.163   7.840   3.538 -2.4047  0.2188  0.9166
 8709SOL    HW227569   1.227   7.809   3.672 -0.8120 -1.0106 -0.0878
 8710SOL     OW27570   4.754   5.176  12.226 -0.2828  0.6475  0.3784
 8710SOL    HW127571   4.796   5.219  12.151 -0.3352  0.1931  0.0884
 8710SOL    HW227572   4.661   5.173  12.202 -0.1745 -0.3076  0.0687
 8711SOL     OW27573   0.011   4.762   5.333  0.3877  0.5189 -0.0784
 8711SOL    HW127574  -0.083   4.763   5.351  0.2525  0.4942 -0.7573
 8711SOL    HW227575   0.051   4.791   5.415 -0.2146  0.6133  0.1908
 8712SOL     OW27576   4.433   6.323   8.413 -0.1342 -0.6005 -0.0103
 8712SOL    HW127577   4.520   6.285   8.418 -0.3373 -1.2523 -1.2195
 8712SOL    HW227578   4.448   6.417   8.407  0.5995 -0.8232 -2.3865
 8713SOL     OW27579   3.612   0.398   1.541 -0.8867  0.0162 -0.0189
 8713SOL    HW127580   3.559   0.414   1.464  0.1693 -0.9150 -0.9750
 8713SOL    HW227581   3.670   0.475   1.546 -0.6393 -0.1401 -0.4331
 8714SOL     OW27582   7.889   7.632   6.470 -0.2485 -0.1044 -0.1492
 8714SOL    HW127583   7.875   7.726   6.481 -1.0581  0.0634 -2.1387
 8714SOL    HW227584   7.928   7.624   6.383 -1.5766 -1.6837 -0.6568
 8715SOL     OW27585   3.612   5.204   0.838 -0.1697  0.0345  0.1229
 8715SOL    HW127586   3.652   5.238   0.917 -0.8746  1.5577 -0.1390
 8715SOL    HW227587   3.599   5.110   0.856  3.6882 -0.6681  0.0913
 8716SOL     OW27588   6.794   3.389  11.258 -0.1405  0.0184 -0.4067
 8716SOL    HW127589   6.761   3.479  11.246  0.4229  0.3760  0.6129
 8716SOL    HW227590   6.795   3.377  11.353 -2.0376 -1.7758 -0.5450
 8717SOL     OW27591   0.655   6.413  11.097  0.2156  0.3060 -0.1274
 8717SOL    HW127592   0.697   6.397  11.181  1.5403  1.8929 -0.4402
 8717SOL    HW227593   0.655   6.328  11.054 -1.1773 -0.7074  1.7242
 8718SOL     OW27594   5.572   2.387   3.714 -0.1130 -0.4103 -0.1903
 8718SOL    HW127595   5.604   2.477   3.720  1.6863 -0.9188 -1.2298
 8718SOL    HW227596   5.555   2.373   3.621  2.0849 -1.8552 -0.4634
 8719SOL     OW27597   5.977   1.722   5.446 -0.2323 -0.0831  0.4948
 8719SOL    HW127598   5.966   1.792   5.381  2.3593 -0.8345 -0.9051
 8719SOL    HW227599   5.906   1.660   5.428 -0.5253  0.5280 -0.5192
 8720SOL     OW27600   0.073   7.940   3.598  0.1056 -0.2344 -0.1653
 8720SOL    HW127601   0.048   7.864   3.651  1.9895 -0.5771  0.3105
 8720SOL    HW227602   0.160   7.919   3.566  0.3001  1.3597 -0.7749
 8721SOL     OW27603   6.153   2.337   9.251 -0.4517 -0.1210  0.3750
 8721SOL    HW127604   6.247   2.340   9.232 -0.6166 -1.0717 -0.6891
 8721SOL    HW227605   6.130   2.245   9.241 -1.0066 -0.3691  3.2674
 8722SOL     OW27606   3.071   0.932   2.906  0.1192  0.2823  0.2501
 8722SOL    HW127607   3.045   0.874   2.978  0.5848 -0.6112 -0.2719
 8722SOL    HW227608   3.027   0.895   2.830  1.5179 -0.2307 -0.3352
 8723SOL     OW27609   3.282   7.664   9.255 -0.4883  0.0280  0.2309
 8723SOL    HW127610   3.342   7.604   9.211 -1.4976  0.2361 -1.5115
 8723SOL    HW227611   3.311   7.751   9.228  1.4021  0.4927  3.2869
 8724SOL     OW27612   0.337   5.122   5.923  0.0103  0.0236  0.2936
 8724SOL    HW127613   0.355   5.114   5.829  0.2242  0.1213  0.3249
 8724SOL    HW227614   0.401   5.186   5.954  0.5868 -0.7247  0.6837
 8725SOL     OW27615   7.588   3.437   2.644  0.0074 -0.6883  0.4085
 8725SOL    HW127616   7.620   3.377   2.577  0.7106  0.4314 -0.3046
 8725SOL    HW227617   7.548   3.509   2.594  0.9632  0.3894  1.1547
 8726SOL     OW27618   5.309   6.246   3.046  0.6703  0.8540 -0.6691
 8726SOL    HW127619   5.359   6.172   3.080 -1.7351 -1.1081 -1.1547
 8726SOL    HW227620   5.321   6.243   2.952 -0.1438  0.5279 -0.7670
 8727SOL     OW27621   2.531   4.575   5.096  0.1374 -0.1079  0.0792
 8727SOL    HW127622   2.559   4.660   5.130 -0.3238  0.0502  0.0765
 8727SOL    HW227623   2.597   4.552   5.031 -0.0023  0.4865 -0.2805
 8728SOL     OW27624   2.277   2.317   3.829 -0.1543  0.2482  0.4499
 8728SOL    HW127625   2.265   2.306   3.924  1.6852  2.1338  0.9896
 8728SOL    HW227626   2.371   2.304   3.816 -0.5456 -1.1522 -1.3657
 8729SOL     OW27627   3.384   7.039  12.337  0.3147  0.3237 -0.2282
 8729SOL    HW127628   3.426   7.061  12.420  0.7737  0.4108 -0.4780
 8729SOL    HW227629   3.323   6.969  12.358 -1.1067  1.7288  0.5744
 8730SOL     OW27630   5.482   7.383   0.702  0.1354 -0.0701 -0.2157
 8730SOL    HW127631   5.426   7.461   0.713  0.3735  0.1292 -0.4141
 8730SOL    HW227632   5.546   7.390   0.772  0.1146 -0.1256 -0.1911
 8731SOL     OW27633   2.873   4.832   3.067 -0.3506  0.0580 -0.1887
 8731SOL    HW127634   2.930   4.893   3.020 -1.2580  1.3755  0.3437
 8731SOL    HW227635   2.933   4.777   3.117  0.5363 -0.0439 -1.3173
 8732SOL     OW27636   4.714   5.916   2.094  0.2671  0.0201  0.1021
 8732SOL    HW127637   4.758   5.984   2.144  1.5587 -0.5865 -0.1925
 8732SOL    HW227638   4.622   5.921   2.123  0.9116 -0.1758  2.3714
 8733SOL     OW27639   5.005   6.238   3.533  0.2709 -0.4165 -0.1144
 8733SOL    HW127640   4.969   6.326   3.543  1.1849 -0.2406  2.6443
 8733SOL    HW227641   4.932   6.180   3.554 -0.4356 -0.4032 -2.3010
 8734SOL     OW27642   7.885   5.359  10.095 -0.4535  0.1707  0.3563
 8734SOL    HW127643   7.843   5.436  10.057  0.2880  0.4877  0.1568
 8734SOL    HW227644   7.969   5.391  10.129 -0.0725 -0.5736  0.1521
 8735SOL     OW27645   2.748   5.938   9.685 -0.4151 -0.5649  0.5852
 8735SOL    HW127646   2.831   5.901   9.653 -0.4710 -0.0623 -0.1677
 8735SOL    HW227647   2.700   5.961   9.605  0.0049  1.9549  0.9748
 8736SOL     OW27648   2.682   0.378   6.789 -0.4663 -0.5126  0.2442
 8736SOL    HW127649   2.622   0.303   6.791 -0.3233 -0.6269  1.7580
 8736SOL    HW227650   2.761   0.346   6.833 -0.3648  0.4887  0.8136
 8737SOL     OW27651   6.724   3.994   2.376  0.2794 -0.3897  0.2387
 8737SOL    HW127652   6.662   4.024   2.310  0.8218 -0.3812 -0.2684
 8737SOL    HW227653   6.810   4.006   2.337  0.5516 -1.9786  0.2554
 8738SOL     OW27654   3.878   1.453   4.003  0.3439 -0.4644  0.3330
 8738SOL    HW127655   3.800   1.405   3.973  0.6056 -0.2829 -0.6695
 8738SOL    HW227656   3.844   1.540   4.025  0.4141 -0.0266 -1.1659
 8739SOL     OW27657   6.945   0.638  12.104  0.3439  0.0347 -0.2952
 8739SOL    HW127658   6.881   0.658  12.172  0.7908  2.2355 -0.4316
 8739SOL    HW227659   6.968   0.724  12.067  0.2458 -1.0589 -3.1127
 8740SOL     OW27660   2.673   6.341   2.097  0.2935  0.6333  0.3711
 8740SOL    HW127661   2.763   6.339   2.064 -0.1280  2.5485 -1.0679
 8740SOL    HW227662   2.661   6.430   2.129 -1.6299  0.9761 -1.1132
 8741SOL     OW27663   6.119   0.108   7.800  0.4224  0.1551 -0.0649
 8741SOL    HW127664   6.090   0.115   7.709  0.7503 -0.9133 -0.2629
 8741SOL    HW227665   6.197   0.163   7.804 -0.0862  0.9081 -0.1955
 8742SOL     OW27666   1.125   5.941   9.014  0.0198 -0.1603 -0.4922
 8742SOL    HW127667   1.048   5.998   9.017 -0.2206 -0.5028  0.5431
 8742SOL    HW227668   1.101   5.866   9.069  1.0703 -0.2999 -0.2022
 8743SOL     OW27669   3.971   6.633   3.820  0.5558  0.0817 -0.2902
 8743SOL    HW127670   4.025   6.704   3.787 -0.3287  0.3674 -1.1533
 8743SOL    HW227671   3.908   6.615   3.750  0.9669 -1.7851 -0.2541
 8744SOL     OW27672   3.549   6.506   2.559  0.2455 -0.2539  0.3617
 8744SOL    HW127673   3.569   6.458   2.639  0.4282 -0.6969  0.0575
 8744SOL    HW227674   3.458   6.487   2.540 -0.0467  0.5426  0.9253
 8745SOL     OW27675   4.612   0.529   2.557  0.1058 -0.1708 -0.1940
 8745SOL    HW127676   4.682   0.475   2.592  1.3904  1.2441 -0.4922
 8745SOL    HW227677   4.540   0.468   2.542  1.0402 -1.5471  0.7162
 8746SOL     OW27678   1.660   2.463   4.400 -0.3595 -0.0835 -0.6910
 8746SOL    HW127679   1.583   2.433   4.448 -0.4538  0.3918 -0.5418
 8746SOL    HW227680   1.727   2.475   4.467 -0.8588  1.8053 -0.4661
 8747SOL     OW27681   6.257   6.236   2.190 -0.6083 -0.1949  0.5677
 8747SOL    HW127682   6.232   6.145   2.201  1.1617 -0.6921  0.8535
 8747SOL    HW227683   6.350   6.238   2.213 -0.5920  1.6678  0.4956
 8748SOL     OW27684   2.131   2.796   4.768  0.1403  0.3272 -0.1012
 8748SOL    HW127685   2.101   2.829   4.684  0.5519  1.0054  0.0146
 8748SOL    HW227686   2.181   2.868   4.806  1.5328 -0.6020 -0.0949
 8749SOL     OW27687   3.482   3.283  10.780  0.0519 -0.3413  0.4230
 8749SOL    HW127688   3.473   3.292  10.685  0.1668  0.0855  0.4506
 8749SOL    HW227689   3.442   3.363  10.815 -0.2912 -0.6515  0.7512
 8750SOL     OW27690   1.816   0.198   6.676  0.5518 -0.4557  0.1756
 8750SOL    HW127691   1.798   0.104   6.672 -0.4270 -0.3473  1.3115
 8750SOL    HW227692   1.772   0.227   6.756  2.8386  0.5447  1.1576
 8751SOL     OW27693   1.622   6.858   1.756  0.2312  0.0282  0.2933
 8751SOL    HW127694   1.604   6.905   1.675 -2.4691 -2.2751 -0.6062
 8751SOL    HW227695   1.689   6.794   1.733  0.7515  0.5346  0.3792
 8752SOL     OW27696   2.646   0.995   2.157 -0.4444  0.0875  0.6264
 8752SOL    HW127697   2.560   1.035   2.171 -0.9904 -0.4812 -0.8873
 8752SOL    HW227698   2.703   1.068   2.134 -0.6389  0.3950  1.0972
 8753SOL     OW27699   2.617   1.446  12.315 -0.0221 -0.1128 -0.0984
 8753SOL    HW127700   2.696   1.491  12.346  0.0618 -0.6681  0.5134
 8753SOL    HW227701   2.646   1.396  12.239 -0.1205  0.8699 -0.7991
 8754SOL     OW27702   1.559   6.336   3.629  0.3938 -0.3458  1.0958
 8754SOL    HW127703   1.488   6.276   3.648 -1.3685  1.4675  0.6381
 8754SOL    HW227704   1.619   6.327   3.703  0.2796 -2.7167  0.9525
 8755SOL     OW27705   6.673   5.133   1.720 -0.4149 -0.4379  0.8347
 8755SOL    HW127706   6.578   5.139   1.712 -0.6355  1.2985  3.3821
 8755SOL    HW227707   6.707   5.183   1.646 -1.4222 -1.4816 -0.3854
 8756SOL     OW27708   7.356   4.221   7.738  0.3799  0.0684  0.3667
 8756SOL    HW127709   7.422   4.153   7.725 -1.4998 -2.7532  3.8654
 8756SOL    HW227710   7.272   4.174   7.735 -1.3611  2.9594 -0.7369
 8757SOL     OW27711   1.953   2.947   1.714 -0.3467  0.0740 -0.4793
 8757SOL    HW127712   1.903   2.917   1.638  2.4771 -1.0663 -2.0113
 8757SOL    HW227713   1.910   2.904   1.789 -2.9735  0.9565 -1.3627
 8758SOL     OW27714   6.014   5.479   4.762  0.1583 -0.6985  0.2785
 8758SOL    HW127715   6.038   5.409   4.823 -1.0258 -1.7737 -0.4585
 8758SOL    HW227716   5.992   5.434   4.681 -1.4176  0.4568  0.0258
 8759SOL     OW27717   6.334   5.341   1.137  0.8368 -0.0333  0.1950
 8759SOL    HW127718   6.249   5.316   1.101  0.9503 -1.1219  0.6535
 8759SOL    HW227719   6.332   5.437   1.138 -0.1746 -0.0332 -0.2780
 8760SOL     OW27720   5.849   3.033   4.869  0.1986 -0.0441  0.2739
 8760SOL    HW127721   5.914   3.095   4.904 -0.0486 -0.6419  1.8866
 8760SOL    HW227722   5.765   3.074   4.886  0.0771 -0.1943  0.0448
 8761SOL     OW27723   3.278   5.341   6.222  0.4461  0.5264 -0.3169
 8761SOL    HW127724   3.194   5.384   6.207 -1.3992 -2.4365  0.5622
 8761SOL    HW227725   3.259   5.273   6.287  3.7586  0.3202  0.6145
 8762SOL     OW27726   3.538   6.213  10.835  0.4571  0.1533  0.3509
 8762SOL    HW127727   3.633   6.206  10.844  0.5082  0.1588 -0.1351
 8762SOL    HW227728   3.524   6.298  10.793  0.3872 -0.6621 -1.4026
 8763SOL     OW27729   1.829   6.261   0.031 -0.5364  0.1637  0.2756
 8763SOL    HW127730   1.805   6.169   0.041  0.4607 -0.0486  0.8776
 8763SOL    HW227731   1.849   6.291   0.119  1.2576  0.3246 -0.1349
 8764SOL     OW27732   3.425   2.901   0.392  0.2086  0.1136 -0.2595
 8764SOL    HW127733   3.471   2.979   0.422  0.2424 -0.2003  0.5074
 8764SOL    HW227734   3.366   2.878   0.464  1.2679 -1.4381  0.1589
 8765SOL     OW27735   1.277   6.642   2.033  0.5849  0.1103  0.3063
 8765SOL    HW127736   1.370   6.633   2.015  0.4163 -2.0014  0.2282
 8765SOL    HW227737   1.262   6.589   2.112 -0.6480 -0.1317 -0.0605
 8766SOL     OW27738   1.998   3.718   8.460  0.4191  0.4932 -0.5428
 8766SOL    HW127739   2.011   3.748   8.370 -0.7054  0.4713 -0.7324
 8766SOL    HW227740   1.932   3.778   8.495  1.7052  1.2386  0.6618
 8767SOL     OW27741   3.256   2.954  11.624  0.6523 -0.6126 -0.3172
 8767SOL    HW127742   3.286   2.902  11.698 -0.5936 -1.3576 -0.3043
 8767SOL    HW227743   3.245   2.891  11.553 -0.9478 -0.3991 -0.2834
 8768SOL     OW27744   1.559   6.858   2.600  0.0417  0.2313  0.2395
 8768SOL    HW127745   1.505   6.811   2.663  1.3257 -0.3151  0.9721
 8768SOL    HW227746   1.569   6.946   2.637  0.0126  0.2011  0.3187
 8769SOL     OW27747   4.411   2.419   3.029 -0.1500  0.6456 -0.2607
 8769SOL    HW127748   4.471   2.493   3.028  0.3753  0.2910  1.3556
 8769SOL    HW227749   4.368   2.421   2.944  0.6062  2.1789 -0.6350
 8770SOL     OW27750   3.196   2.626   7.562  0.0579 -0.1221 -0.1750
 8770SOL    HW127751   3.145   2.707   7.561 -1.0442 -0.7714  0.6579
 8770SOL    HW227752   3.278   2.650   7.606 -0.4936  0.4324  0.5877
 8771SOL     OW27753   6.810   0.378   4.494 -0.9763 -0.1479 -0.7634
 8771SOL    HW127754   6.769   0.293   4.476  0.1878 -0.8566 -0.2022
 8771SOL    HW227755   6.841   0.408   4.408 -0.2646 -0.9164 -0.7863
 8772SOL     OW27756   1.363   3.136   3.881  0.5369  0.4800  0.1409
 8772SOL    HW127757   1.281   3.091   3.859  1.3594 -0.0755 -2.1479
 8772SOL    HW227758   1.428   3.065   3.883  0.9624  0.8861  2.1173
 8773SOL     OW27759   3.512   4.583   6.536 -0.0673  0.1086 -0.2130
 8773SOL    HW127760   3.556   4.650   6.588  0.7370  1.0463 -2.0207
 8773SOL    HW227761   3.480   4.629   6.459 -2.4320 -0.9665  0.0308
 8774SOL     OW27762   1.130   0.595   1.627  0.0572  0.5932  0.2088
 8774SOL    HW127763   1.221   0.615   1.649  0.3544 -0.1222 -0.3351
 8774SOL    HW227764   1.129   0.501   1.610 -0.9462  0.4417  0.9899
 8775SOL     OW27765   7.337   5.817   9.305  0.4927 -0.3600 -0.4449
 8775SOL    HW127766   7.416   5.780   9.266  1.1930 -1.4838  1.8734
 8775SOL    HW227767   7.266   5.783   9.252  1.1814 -4.2305  0.8106
 8776SOL     OW27768   2.850   5.480   1.727 -0.3692 -0.1185  0.7763
 8776SOL    HW127769   2.775   5.484   1.787 -1.5326 -1.7206 -0.4744
 8776SOL    HW227770   2.829   5.408   1.668  1.1832  0.7736 -0.9620
 8777SOL     OW27771   6.028   0.025   1.243  0.0689 -0.1067 -0.3554
 8777SOL    HW127772   5.936   0.005   1.221 -0.1290  0.7646 -0.3655
 8777SOL    HW227773   6.079  -0.028   1.182 -0.4369 -0.3594 -0.5652
 8778SOL     OW27774   4.040   3.394  12.122  0.3590 -0.1779 -0.0042
 8778SOL    HW127775   4.105   3.408  12.053 -0.5457  0.4015 -0.7546
 8778SOL    HW227776   4.024   3.300  12.120 -0.0072 -0.1001 -0.9063
 8779SOL     OW27777   5.038   1.436   3.726  0.6522 -0.0638  0.9852
 8779SOL    HW127778   4.945   1.451   3.706  0.8701 -0.6644 -0.5948
 8779SOL    HW227779   5.053   1.344   3.702  1.6281 -0.0186  1.3715
 8780SOL     OW27780   4.413   7.767   7.665  0.1101 -0.1468  0.4967
 8780SOL    HW127781   4.340   7.821   7.634 -2.3249 -2.5081  1.7215
 8780SOL    HW227782   4.441   7.718   7.588 -1.9010 -1.6275  0.6353
 8781SOL     OW27783   7.747   4.334   5.878 -0.2573 -0.6015 -0.2369
 8781SOL    HW127784   7.732   4.402   5.812 -0.6772 -0.2247  0.2405
 8781SOL    HW227785   7.663   4.288   5.884 -0.3542 -0.3566  0.3429
 8782SOL     OW27786   3.565   5.626   2.690  0.5125  0.0944 -0.4585
 8782SOL    HW127787   3.479   5.597   2.720  1.3736  0.5360  2.8885
 8782SOL    HW227788   3.557   5.721   2.681  0.5532  0.0939 -0.5025
 8783SOL     OW27789   2.493   1.885   2.471 -0.0283  0.4268 -0.6529
 8783SOL    HW127790   2.588   1.880   2.477 -0.0049  1.0326 -0.3858
 8783SOL    HW227791   2.468   1.810   2.417  0.4646 -0.6613  0.5597
 8784SOL     OW27792   5.173   0.533   1.916  0.2280  0.0135 -0.1098
 8784SOL    HW127793   5.220   0.526   1.999 -0.1524 -0.0973  0.1001
 8784SOL    HW227794   5.161   0.627   1.902 -0.8747  0.0013  0.6364
 8785SOL     OW27795   5.984   2.703   9.424  0.5735 -0.3127  0.6745
 8785SOL    HW127796   6.043   2.710   9.499 -0.0732 -1.4596  1.3157
 8785SOL    HW227797   5.948   2.614   9.430 -0.6937  0.1272 -0.0793
 8786SOL     OW27798   2.316   7.349   2.121  0.1207  0.0865  0.3567
 8786SOL    HW127799   2.249   7.309   2.065  1.5969 -1.4425 -0.3924
 8786SOL    HW227800   2.359   7.274   2.163  0.6584  1.0964  1.6462
 8787SOL     OW27801   3.652   6.216   9.945 -0.4117  0.1374 -0.0040
 8787SOL    HW127802   3.665   6.308   9.922  1.0774 -0.0886 -0.1504
 8787SOL    HW227803   3.705   6.167   9.882  0.0929 -0.7202  1.0517
 8788SOL     OW27804   1.310   5.483  11.919 -0.0735  0.1277 -0.2278
 8788SOL    HW127805   1.328   5.393  11.893 -0.3675 -0.3260  1.0583
 8788SOL    HW227806   1.270   5.523  11.842  1.7371 -0.2806 -1.4465
 8789SOL     OW27807   7.432   6.907   0.053  0.1683  0.4135  0.3290
 8789SOL    HW127808   7.472   6.981   0.098 -0.1547 -0.1974  1.6741
 8789SOL    HW227809   7.375   6.867   0.118  0.1179 -0.8477 -0.4493
 8790SOL     OW27810   3.251   2.948  11.931 -0.3523  0.2810  0.3518
 8790SOL    HW127811   3.216   2.859  11.935 -0.5479  0.2605 -1.2453
 8790SOL    HW227812   3.187   3.001  11.978 -1.4641 -0.0833 -0.7025
 8791SOL     OW27813   0.240   6.256   8.761 -0.1000  0.1302 -0.5116
 8791SOL    HW127814   0.168   6.257   8.824  0.6180  1.7169  0.3349
 8791SOL    HW227815   0.248   6.347   8.733 -0.0469 -0.4566 -2.5148
 8792SOL     OW27816   7.580   6.528   6.121 -0.3956 -0.1234  0.2641
 8792SOL    HW127817   7.506   6.507   6.177 -0.5223  0.0062  0.1461
 8792SOL    HW227818   7.642   6.574   6.178  0.1532 -1.3334  0.6787
 8793SOL     OW27819   0.231   2.180   6.731 -0.0587  0.3893  0.1392
 8793SOL    HW127820   0.237   2.162   6.637  3.8805  0.3998  0.2247
 8793SOL    HW227821   0.140   2.205   6.745 -0.7959  0.3970 -3.6561
 8794SOL     OW27822   1.036   4.475   4.692  0.1608  0.3219  0.2688
 8794SOL    HW127823   1.041   4.439   4.780 -0.5621  1.0380  0.6203
 8794SOL    HW227824   0.969   4.423   4.648 -0.2593  0.6637  0.4974
 8795SOL     OW27825   1.988   0.478   7.400  0.1980 -0.0374 -0.4228
 8795SOL    HW127826   2.027   0.397   7.432 -0.1795 -0.1034 -0.1377
 8795SOL    HW227827   2.061   0.524   7.358  0.3343 -0.6756 -0.8909
 8796SOL     OW27828   3.250   5.977   5.032  0.3047 -0.0814  0.3194
 8796SOL    HW127829   3.307   5.982   5.109 -2.5387  1.2663  2.5052
 8796SOL    HW227830   3.231   6.069   5.011  0.3318 -0.4595 -1.4789
 8797SOL     OW27831   7.611   2.003   0.992  0.4781  0.4554  0.0905
 8797SOL    HW127832   7.579   1.981   1.080  0.4512 -0.7567 -0.2086
 8797SOL    HW227833   7.681   1.941   0.976  1.3847  1.5234 -0.2379
 8798SOL     OW27834   5.298   1.841  10.874  0.9229  0.1387  0.0163
 8798SOL    HW127835   5.297   1.848  10.779  0.2697  1.8467  0.1138
 8798SOL    HW227836   5.246   1.915  10.904  1.6089 -0.0251  1.7208
 8799SOL     OW27837   7.263   1.563   0.882  0.0598 -0.2412 -0.2550
 8799SOL    HW127838   7.173   1.584   0.906 -0.6057 -0.9479 -1.9612
 8799SOL    HW227839   7.306   1.647   0.869  0.2696  0.1728  2.4672
 8800SOL     OW27840   3.187   0.491   9.969 -0.4939 -0.0685  0.4528
 8800SOL    HW127841   3.202   0.581   9.998  1.6812 -0.6158  1.2232
 8800SOL    HW227842   3.201   0.493   9.875 -1.7519  0.6162  0.2613
 8801SOL     OW27843   1.368   4.747   8.595 -0.2750  0.3404 -0.1339
 8801SOL    HW127844   1.429   4.805   8.549  0.8172 -0.5764  0.1137
 8801SOL    HW227845   1.409   4.731   8.680 -0.4903 -0.8647 -0.2372
 8802SOL     OW27846   0.081   0.251   2.097  0.3551  0.0858 -0.1558
 8802SOL    HW127847   0.004   0.300   2.069 -0.4267 -0.2294  1.3059
 8802SOL    HW227848   0.155   0.309   2.079 -0.1784  0.2696 -1.8639
 8803SOL     OW27849   4.413   0.028   9.774 -0.1952 -0.0686 -0.1227
 8803SOL    HW127850   4.373   0.112   9.797 -0.0228  0.5237 -1.8867
 8803SOL    HW227851   4.505   0.049   9.759 -0.0114 -0.7071  0.0885
 8804SOL     OW27852   4.734   4.716   9.502  0.4400 -0.4947  0.1256
 8804SOL    HW127853   4.778   4.631   9.510  0.0248 -0.7326 -0.0894
 8804SOL    HW227854   4.668   4.703   9.434 -0.7004 -0.4654  1.1803
 8805SOL     OW27855   2.946   6.441   8.576 -0.6784  0.9329  0.3302
 8805SOL    HW127856   2.895   6.368   8.611 -0.6399 -0.0507 -1.5838
 8805SOL    HW227857   2.887   6.516   8.580 -2.0809 -0.0240 -1.1799
 8806SOL     OW27858   2.473   2.006   3.382  0.6485  0.3069  0.2289
 8806SOL    HW127859   2.472   2.081   3.322  0.3060 -1.2959 -1.8739
 8806SOL    HW227860   2.560   1.967   3.371  0.6556  0.1032  0.9417
 8807SOL     OW27861   2.189   3.267   8.055 -0.0864 -0.2145 -0.0725
 8807SOL    HW127862   2.144   3.188   8.084  1.4268 -1.1009 -0.0294
 8807SOL    HW227863   2.266   3.235   8.009  0.5444  1.2435 -0.0881
 8808SOL     OW27864   4.859   6.634  11.619 -0.2823 -0.0887 -0.3468
 8808SOL    HW127865   4.854   6.543  11.590 -1.5281 -0.9192  2.2651
 8808SOL    HW227866   4.921   6.675  11.557  0.6673 -2.7745 -1.3058
 8809SOL     OW27867   1.633   5.190   7.088 -0.0952 -0.4152  0.3866
 8809SOL    HW127868   1.597   5.269   7.049 -0.5189 -0.8667 -0.1447
 8809SOL    HW227869   1.725   5.211   7.105  0.2114 -0.3475 -1.2278
 8810SOL     OW27870   4.150   5.809   3.266 -0.9182 -0.1551  0.2781
 8810SOL    HW127871   4.215   5.854   3.212  0.1864 -2.1690 -0.1597
 8810SOL    HW227872   4.072   5.807   3.211 -1.2408  1.7920  0.5893
 8811SOL     OW27873   2.285   5.523   1.366  0.1195  0.4323  0.8693
 8811SOL    HW127874   2.372   5.526   1.325 -0.1415  3.2707  0.3115
 8811SOL    HW227875   2.298   5.562   1.452 -0.6134  0.9377  0.7529
 8812SOL     OW27876   4.297   7.932  12.285  0.3739 -1.0066  0.0100
 8812SOL    HW127877   4.261   7.877  12.215 -2.5897  0.7408  0.0080
 8812SOL    HW227878   4.391   7.932  12.269 -0.0320 -1.9891 -3.0128
 8813SOL     OW27879   2.854   1.670   3.066 -0.2160 -0.3284  0.0917
 8813SOL    HW127880   2.764   1.699   3.050 -0.4122 -0.7992  0.2874
 8813SOL    HW227881   2.844   1.578   3.092  0.3636 -0.5164 -0.3439
 8814SOL     OW27882   2.841   5.518   4.352 -0.2333  0.3020 -0.2912
 8814SOL    HW127883   2.792   5.441   4.380 -0.2609 -0.0253 -1.2133
 8814SOL    HW227884   2.786   5.592   4.377 -1.3910 -0.0721 -1.6346
 8815SOL     OW27885   2.924   4.347   5.601  0.1467 -0.7696 -0.5102
 8815SOL    HW127886   2.960   4.375   5.517 -3.0124 -0.8560 -2.0634
 8815SOL    HW227887   2.897   4.256   5.587 -2.0586 -0.2523 -0.1101
 8816SOL     OW27888   5.588   5.338   4.543  0.2469  0.1920  0.0480
 8816SOL    HW127889   5.530   5.391   4.489  0.5425  0.1848 -0.2822
 8816SOL    HW227890   5.672   5.340   4.497 -0.0836 -1.7182 -0.7391
 8817SOL     OW27891   0.419   7.689   1.093  0.3543  0.0586 -0.6402
 8817SOL    HW127892   0.492   7.747   1.112  0.4865 -0.5744  0.9397
 8817SOL    HW227893   0.343   7.746   1.089  0.5148  0.4021  0.6761
 8818SOL     OW27894   5.926   4.680  12.289 -0.3585  0.7444  0.4244
 8818SOL    HW127895   5.934   4.662  12.383  1.7423  1.9870  0.5521
 8818SOL    HW227896   5.870   4.611  12.256 -0.8016  0.0288  2.5258
 8819SOL     OW27897   5.307   1.874   3.211 -0.3608 -0.2217 -0.4467
 8819SOL    HW127898   5.246   1.800   3.207  0.2578 -0.6808 -3.3549
 8819SOL    HW227899   5.390   1.838   3.182  0.0022  1.5355 -1.7465
 8820SOL     OW27900   7.911   0.198  10.909  0.5858  0.3982  0.6538
 8820SOL    HW127901   7.828   0.165  10.946 -0.5045 -0.2703 -2.1103
 8820SOL    HW227902   7.972   0.125  10.920 -0.6723 -1.1595 -1.7128
 8821SOL     OW27903   2.020   4.838   4.183  0.4966 -0.1924  0.2502
 8821SOL    HW127904   1.964   4.893   4.237 -1.1440 -1.1974 -0.3424
 8821SOL    HW227905   1.987   4.749   4.197  0.1223 -0.5191 -2.1948
 8822SOL     OW27906   5.055   2.674  12.254  0.3201  0.3235 -0.4349
 8822SOL    HW127907   5.076   2.765  12.277 -1.3481  0.8803 -0.9717
 8822SOL    HW227908   5.060   2.627  12.337 -0.2686  1.2148  0.1241
 8823SOL     OW27909   5.497   2.545  11.013 -0.0098  0.0399  0.7389
 8823SOL    HW127910   5.439   2.619  10.995 -0.7697 -0.8060 -0.4596
 8823SOL    HW227911   5.478   2.482  10.943  1.5974 -0.7134  0.9375
 8824SOL     OW27912   2.572   2.405   0.472  0.3474 -0.3555  0.2577
 8824SOL    HW127913   2.478   2.413   0.454  0.5125 -0.1892 -0.5190
 8824SOL    HW227914   2.599   2.326   0.425  1.5164  1.9754 -3.3177
 8825SOL     OW27915   2.001   6.184   6.212  0.5549  1.0108 -0.0756
 8825SOL    HW127916   1.979   6.274   6.185  0.2548  0.4174 -1.9554
 8825SOL    HW227917   1.918   6.149   6.245 -0.7117 -0.0787 -3.8936
 8826SOL     OW27918   7.343   1.961  12.116  0.5371  0.1614 -0.1339
 8826SOL    HW127919   7.296   1.883  12.146 -0.8747  1.1612  0.3531
 8826SOL    HW227920   7.278   2.010  12.066  1.8938  0.2004 -1.9885
 8827SOL     OW27921   0.935   7.521   0.896  0.2708  0.3022 -0.1556
 8827SOL    HW127922   1.004   7.576   0.861  1.2457 -0.2242  0.8915
 8827SOL    HW227923   0.954   7.433   0.863 -0.1430  0.2261 -0.2054
 8828SOL     OW27924   1.759   4.946   8.688 -0.0612 -0.6035  0.2993
 8828SOL    HW127925   1.816   5.005   8.737  2.2602 -0.9907 -1.7259
 8828SOL    HW227926   1.680   4.997   8.670  0.4358  0.6557  1.5130
 8829SOL     OW27927   2.427   5.645   0.800 -0.2978 -0.3407  0.1770
 8829SOL    HW127928   2.363   5.713   0.824  0.1217  0.1192  0.0097
 8829SOL    HW227929   2.477   5.630   0.880  0.3179  0.3342 -0.0689
 8830SOL     OW27930   7.803   2.978  11.530  0.2357 -0.2308  0.2516
 8830SOL    HW127931   7.776   3.037  11.599 -0.8539 -1.2982  0.7747
 8830SOL    HW227932   7.784   2.890  11.564 -0.0210 -0.7940 -1.2531
 8831SOL     OW27933   3.922   4.107   0.402  0.0857  0.2435  0.3838
 8831SOL    HW127934   3.961   4.020   0.403 -0.8230 -0.1761  0.0066
 8831SOL    HW227935   3.937   4.141   0.491  2.5701  0.7033 -0.1371
 8832SOL     OW27936   1.906   7.780   4.716 -0.1836 -0.5195  0.1113
 8832SOL    HW127937   1.899   7.823   4.801  0.8313 -1.2064  0.5692
 8832SOL    HW227938   1.933   7.849   4.655 -0.8381 -0.0419  0.3558
 8833SOL     OW27939   4.224   7.432   2.922 -0.1912 -0.0958 -0.2040
 8833SOL    HW127940   4.143   7.465   2.883  0.1074  1.0051  0.0475
 8833SOL    HW227941   4.282   7.508   2.922  1.7412 -1.4101 -2.6448
 8834SOL     OW27942   2.634   6.768   8.394  0.7008 -0.0655 -0.0313
 8834SOL    HW127943   2.645   6.678   8.365  0.8279 -0.6660  1.7882
 8834SOL    HW227944   2.568   6.764   8.463  1.1616  1.1244  0.5100
 8835SOL     OW27945   4.421   2.137   6.093  0.1309  0.0094  0.2005
 8835SOL    HW127946   4.369   2.217   6.086  1.0110  0.5806  0.1682
 8835SOL    HW227947   4.494   2.150   6.032  0.7050 -0.4933  0.7695
 8836SOL     OW27948   7.326   2.279   8.787 -0.3379  0.3221 -0.0101
 8836SOL    HW127949   7.330   2.291   8.882  0.9375  1.3748 -0.1598
 8836SOL    HW227950   7.406   2.321   8.754 -0.2712 -0.8605 -1.4765
 8837SOL     OW27951   2.503   4.327  12.014 -0.2978  0.1945 -0.0069
 8837SOL    HW127952   2.558   4.385  12.065  0.6978 -2.7992  2.6019
 8837SOL    HW227953   2.424   4.378  11.997  1.0195  2.7091  0.9654
 8838SOL     OW27954   0.054   0.819   3.846 -0.1939 -0.4579 -0.3950
 8838SOL    HW127955   0.044   0.742   3.790 -0.1590 -0.5649 -0.2579
 8838SOL    HW227956   0.070   0.782   3.933  2.1972 -0.3182 -0.7135
 8839SOL     OW27957   7.390   5.027   4.111  0.0836 -0.0535 -0.2683
 8839SOL    HW127958   7.357   5.027   4.201  1.4897 -1.9886  0.3258
 8839SOL    HW227959   7.416   5.118   4.096 -1.1984  0.5364  0.8706
 8840SOL     OW27960   1.336   0.729   5.613 -0.3173  0.5443  0.5202
 8840SOL    HW127961   1.395   0.685   5.553  0.8729  0.8890  1.3995
 8840SOL    HW227962   1.274   0.661   5.640  0.0850  0.0023  0.0950
 8841SOL     OW27963   5.193   7.245   3.307 -0.1472  0.0527 -0.6301
 8841SOL    HW127964   5.287   7.255   3.321 -0.1373 -0.3083 -0.4030
 8841SOL    HW227965   5.183   7.157   3.271 -0.0462  1.3958 -4.3238
 8842SOL     OW27966   4.295   1.502   8.365  0.3292  0.0490 -0.2402
 8842SOL    HW127967   4.321   1.481   8.454  0.3475  0.6262 -0.1067
 8842SOL    HW227968   4.324   1.592   8.352 -1.0996  0.5219 -0.2842
 8843SOL     OW27969   4.210   3.965  12.165 -0.2646  0.7119  0.3254
 8843SOL    HW127970   4.301   3.953  12.191  0.5537  2.9898 -1.2309
 8843SOL    HW227971   4.213   4.030  12.095 -3.1626  1.3154  0.6501
 8844SOL     OW27972   1.835   7.505   6.749 -0.3700  0.2672  0.0995
 8844SOL    HW127973   1.793   7.580   6.708 -2.6232 -0.4091  1.0043
 8844SOL    HW227974   1.855   7.446   6.676  0.5058  1.2837 -0.5096
 8845SOL     OW27975   6.925   1.631   6.629 -1.3153  0.2033  0.3364
 8845SOL    HW127976   6.907   1.713   6.583 -1.6790  0.3173  0.6716
 8845SOL    HW227977   6.842   1.608   6.670 -1.0680 -0.0347  0.7127
 8846SOL     OW27978   4.296   1.947   1.112  0.1202  0.0195  0.4047
 8846SOL    HW127979   4.316   1.938   1.019  1.7050  1.2486  0.5776
 8846SOL    HW227980   4.212   1.903   1.123 -0.9453  1.2878 -1.9350
 8847SOL     OW27981   2.344   7.194   8.798 -0.2677 -0.1514 -0.3563
 8847SOL    HW127982   2.263   7.150   8.827  0.0045 -0.3726  0.0859
 8847SOL    HW227983   2.315   7.252   8.728 -0.9791  0.4856  0.4385
 8848SOL     OW27984   3.523   3.069   1.853 -0.6828  0.2392 -0.5390
 8848SOL    HW127985   3.607   3.044   1.815 -0.3628  1.5322 -0.7166
 8848SOL    HW227986   3.493   2.990   1.899  0.4364 -0.3523 -0.7988
 8849SOL     OW27987   5.611   6.712   3.206 -0.5328 -0.1778 -0.2380
 8849SOL    HW127988   5.552   6.640   3.230 -0.2302  0.4229  2.7061
 8849SOL    HW227989   5.582   6.786   3.259  1.8865  0.5793  0.1645
 8850SOL     OW27990   5.539   0.479   8.176  0.2286  0.1774  0.6660
 8850SOL    HW127991   5.542   0.574   8.178 -0.1591  0.1901  0.6793
 8850SOL    HW227992   5.547   0.456   8.083 -1.6867  0.3033  0.4230
 8851SOL     OW27993   2.279   2.379   5.804  0.0995  0.1593  0.1264
 8851SOL    HW127994   2.186   2.362   5.819  0.0801  0.7367  0.7477
 8851SOL    HW227995   2.296   2.344   5.717 -1.2603  2.0753 -1.0041
 8852SOL     OW27996   2.071   6.762   1.115 -0.0164 -0.2286 -0.7255
 8852SOL    HW127997   2.035   6.847   1.093  0.5753 -0.1247 -1.3309
 8852SOL    HW227998   2.142   6.749   1.052 -0.2758 -1.2885 -0.8169
 8853SOL     OW27999   3.053   6.851   6.511 -0.4267 -0.2102 -0.0446
 8853SOL    HW128000   3.107   6.866   6.588  0.2424  2.9683 -0.9945
 8853SOL    HW228001   2.968   6.888   6.534 -0.0315  1.3639 -1.0045
 8854SOL     OW28002   1.366   6.409   4.610  0.6508 -0.1956 -0.2230
 8854SOL    HW128003   1.375   6.420   4.705  1.8430  0.9648 -0.4369
 8854SOL    HW228004   1.316   6.328   4.600 -0.3222  0.1438  1.4054
 8855SOL     OW28005   2.919   0.490   7.055 -0.3481  0.0359 -0.3326
 8855SOL    HW128006   2.884   0.406   7.026  0.3387 -0.1584 -0.6018
 8855SOL    HW228007   2.953   0.531   6.976  0.0511  0.2126 -0.0739
 8856SOL     OW28008   4.826   0.227   3.083  0.1304  0.3490 -0.1256
 8856SOL    HW128009   4.891   0.287   3.047  1.2285 -1.7104 -1.8643
 8856SOL    HW228010   4.784   0.189   3.006 -2.0346  0.4339  0.9512
 8857SOL     OW28011   4.581   1.051   4.248 -0.2499 -0.2136  0.0121
 8857SOL    HW128012   4.611   0.961   4.254  0.7500  0.1670  1.7520
 8857SOL    HW228013   4.486   1.045   4.243 -0.1681 -1.3592 -0.4321
 8858SOL     OW28014   2.649   4.741   1.552 -0.0385  0.0011  0.5769
 8858SOL    HW128015   2.643   4.755   1.647  0.5973 -0.3711  0.6825
 8858SOL    HW228016   2.595   4.810   1.514 -1.9041 -1.0361  1.2668
 8859SOL     OW28017   4.063   2.610   2.393 -0.0395 -0.0683 -0.1171
 8859SOL    HW128018   4.100   2.697   2.408  0.1058  0.7400 -4.1381
 8859SOL    HW228019   3.982   2.609   2.444  0.7675  1.7738  1.2933
 8860SOL     OW28020   3.527   7.738  10.875  0.3216 -0.0352 -0.6063
 8860SOL    HW128021   3.543   7.650  10.908 -1.7112 -0.4061 -0.4753
 8860SOL    HW228022   3.608   7.762  10.830  1.1121 -1.7443 -0.1740
 8861SOL     OW28023   5.581   7.036   1.799 -0.5272 -0.2107 -0.5419
 8861SOL    HW128024   5.489   7.062   1.797 -0.2381  1.0945  0.9575
 8861SOL    HW228025   5.599   7.005   1.711 -2.2898 -0.0666 -0.9885
 8862SOL     OW28026   2.871   4.090   2.185 -0.5476  0.1405  0.0576
 8862SOL    HW128027   2.932   4.152   2.145 -0.7904 -1.2420 -2.7051
 8862SOL    HW228028   2.793   4.094   2.130 -2.1045  0.1279  2.1113
 8863SOL     OW28029   4.099   7.604   6.369  0.0176 -0.1366  0.6255
 8863SOL    HW128030   4.085   7.620   6.276  0.4870 -1.8146  0.2222
 8863SOL    HW228031   4.145   7.682   6.400  2.2441 -0.6185 -1.1675
 8864SOL     OW28032   7.883   4.542  11.258  0.1593  0.4992 -0.1538
 8864SOL    HW128033   7.824   4.527  11.184 -0.2642  3.7962 -0.6168
 8864SOL    HW228034   7.952   4.598  11.223  0.4930  1.3272  1.7203
 8865SOL     OW28035   0.784   4.151   7.837 -0.1199 -0.2917 -0.4207
 8865SOL    HW128036   0.783   4.229   7.892  0.0835 -0.8076  0.3345
 8865SOL    HW228037   0.787   4.078   7.899 -0.0727 -0.8954 -1.1156
 8866SOL     OW28038   4.333   2.078   8.381 -0.4420  0.4214  0.4418
 8866SOL    HW128039   4.291   2.156   8.416  0.2154  0.4697  1.1578
 8866SOL    HW228040   4.426   2.091   8.399  0.0448  0.7848 -2.0139
 8867SOL     OW28041   3.391   4.607  11.127  0.3625  0.2791 -0.2157
 8867SOL    HW128042   3.406   4.641  11.039 -0.2756  0.3331 -0.3106
 8867SOL    HW228043   3.478   4.592  11.163  0.7398 -2.6298 -1.9511
 8868SOL     OW28044   4.236   3.225   1.736 -0.0464  0.5031 -0.1547
 8868SOL    HW128045   4.140   3.219   1.735 -0.0652  0.0920 -3.3146
 8868SOL    HW228046   4.264   3.181   1.656  2.8956 -0.2176  1.1415
 8869SOL     OW28047   6.052   4.741   2.579 -0.2752  0.6036 -0.1011
 8869SOL    HW128048   6.062   4.660   2.529 -1.7494 -0.5821  1.4068
 8869SOL    HW228049   6.132   4.748   2.631 -0.0040  0.2856 -0.4765
 8870SOL     OW28050   4.903   2.979   0.138  0.2951 -0.1503  0.2377
 8870SOL    HW128051   4.992   2.961   0.170  0.5245 -1.7041 -1.1724
 8870SOL    HW228052   4.892   3.073   0.151  1.7961 -0.0858  1.2920
 8871SOL     OW28053   7.908   5.833   5.164  0.3559 -0.1018  0.4265
 8871SOL    HW128054   7.890   5.918   5.125  1.7032  0.1290  0.2603
 8871SOL    HW228055   7.969   5.790   5.103  0.5228 -0.7467  1.0294
 8872SOL     OW28056   3.914   7.346   9.083  0.2293 -0.0259  0.2409
 8872SOL    HW128057   3.952   7.341   8.995  1.0228  0.8346  0.5137
 8872SOL    HW228058   3.989   7.345   9.142 -0.1488  1.3886  0.8134
 8873SOL     OW28059   6.048   4.029   3.535 -0.6707 -0.4806  0.1182
 8873SOL    HW128060   5.981   3.964   3.515 -1.9299  0.7196  0.2979
 8873SOL    HW228061   6.082   4.056   3.450 -1.3599 -0.1498 -0.0581
 8874SOL     OW28062   4.928   3.745   0.375 -0.1399  0.4520 -0.1727
 8874SOL    HW128063   4.866   3.744   0.302 -1.4235 -0.4998  0.8779
 8874SOL    HW228064   4.980   3.666   0.365  0.5982  1.0022 -0.7815
 8875SOL     OW28065   7.751   2.249   8.905  0.6922  0.7343 -0.3890
 8875SOL    HW128066   7.822   2.302   8.941  0.1586  0.8881  0.4686
 8875SOL    HW228067   7.673   2.277   8.952  0.2230 -0.1242 -0.6145
 8876SOL     OW28068   2.696   2.885   1.715 -0.0824  0.1798 -0.0123
 8876SOL    HW128069   2.663   2.966   1.676  0.6248  0.4006 -0.1617
 8876SOL    HW228070   2.685   2.819   1.646 -0.8247  0.1004  0.1715
 8877SOL     OW28071   2.745   0.494   8.759 -0.2974 -0.0936 -0.2509
 8877SOL    HW128072   2.659   0.483   8.718  0.3701  0.0047 -1.7605
 8877SOL    HW228073   2.754   0.589   8.770 -0.2925 -0.0869 -0.3106
 8878SOL     OW28074   6.241   0.341   0.482 -0.0730 -0.2947  0.2040
 8878SOL    HW128075   6.240   0.272   0.417 -0.7751 -2.4269  2.3387
 8878SOL    HW228076   6.168   0.398   0.457  1.5409  0.7571 -2.5450
 8879SOL     OW28077   1.250   2.253   4.919 -0.6919 -0.3349  0.6351
 8879SOL    HW128078   1.236   2.160   4.905  1.4353 -0.9327  1.9558
 8879SOL    HW228079   1.346   2.262   4.925 -0.8931  1.7468  1.5938
 8880SOL     OW28080   4.155   4.656   0.653  1.2388  0.1499  0.5690
 8880SOL    HW128081   4.223   4.590   0.645  1.1661  0.2484 -1.2562
 8880SOL    HW228082   4.181   4.709   0.728  2.2739 -0.8160  0.9149
 8881SOL     OW28083   2.372   6.346   7.582  0.5709  0.4552  0.6685
 8881SOL    HW128084   2.460   6.330   7.616  0.0365 -0.6956  1.5999
 8881SOL    HW228085   2.314   6.327   7.656 -0.5259 -0.1405 -0.3044
 8882SOL     OW28086   2.671   4.947   4.607  0.6934 -0.1014 -0.0226
 8882SOL    HW128087   2.715   4.864   4.588  2.7960  0.8821  0.2754
 8882SOL    HW228088   2.590   4.944   4.555  0.1700 -2.7587  0.8255
 8883SOL     OW28089   7.881   4.479   7.815  0.7535 -0.4872  0.0221
 8883SOL    HW128090   7.904   4.468   7.907  1.6569 -0.2129 -0.1626
 8883SOL    HW228091   7.936   4.416   7.768  1.1529  0.1863 -0.4280
 8884SOL     OW28092   2.545   1.780  11.318  0.3380  0.0226  0.2808
 8884SOL    HW128093   2.487   1.785  11.394 -1.5160  0.1476 -1.0717
 8884SOL    HW228094   2.566   1.687  11.310 -0.7209 -0.2098  0.0671
 8885SOL     OW28095   3.434   6.725   1.006 -0.1533  0.9078 -0.7387
 8885SOL    HW128096   3.513   6.720   1.060 -0.5030 -0.3131 -0.2975
 8885SOL    HW228097   3.463   6.700   0.918 -0.0410  0.4675 -0.5789
 8886SOL     OW28098   4.757   5.798   3.591 -0.2967 -0.4267  0.0659
 8886SOL    HW128099   4.792   5.813   3.503  2.3304 -2.8071  0.5711
 8886SOL    HW228100   4.762   5.884   3.633  1.8315  0.0644 -1.0285
 8887SOL     OW28101   4.370   3.532  11.607  0.1275  0.3678 -0.5546
 8887SOL    HW128102   4.381   3.445  11.569  2.4496  1.2330 -2.0785
 8887SOL    HW228103   4.414   3.528  11.692  0.8622  0.2305 -0.9359
 8888SOL     OW28104   4.526   4.429   5.319 -1.2541  0.4767  0.0379
 8888SOL    HW128105   4.584   4.363   5.356 -2.1362  0.3560  1.2460
 8888SOL    HW228106   4.571   4.458   5.239 -0.7060 -1.3293 -0.3560
 8889SOL     OW28107   3.965   3.592   2.002 -0.2359  0.1976 -0.4400
 8889SOL    HW128108   3.967   3.685   2.023  0.0492  0.3405 -1.0598
 8889SOL    HW228109   3.961   3.548   2.087 -0.7725  0.7802 -0.1587
 8890SOL     OW28110   5.891   6.726   5.625 -0.5362  0.2780 -0.0619
 8890SOL    HW128111   5.861   6.657   5.566 -1.4936 -1.3048  2.1383
 8890SOL    HW228112   5.969   6.690   5.666 -0.5067  0.8939  0.4274
 8891SOL     OW28113   0.238   3.903   5.737  0.0296 -0.0325 -0.0790
 8891SOL    HW128114   0.286   3.942   5.664 -0.5028  2.8532  0.9784
 8891SOL    HW228115   0.164   3.859   5.696 -0.6054  2.0603 -1.3327
 8892SOL     OW28116   6.043   7.134   6.497  0.5221 -0.6358 -0.5957
 8892SOL    HW128117   6.039   7.063   6.561  1.6820 -0.1791  0.0008
 8892SOL    HW228118   6.065   7.212   6.548  2.7357 -0.4848 -1.6962
 8893SOL     OW28119   2.724   2.007   5.835 -0.3393 -0.3760 -0.1126
 8893SOL    HW128120   2.728   1.923   5.880 -2.3023  0.4495  1.7467
 8893SOL    HW228121   2.810   2.047   5.851  0.2461 -1.5890 -0.1665
 8894SOL     OW28122   2.442   1.700   6.991  0.6345 -0.0733 -0.2265
 8894SOL    HW128123   2.424   1.757   7.066 -0.3555  1.9485 -1.8941
 8894SOL    HW228124   2.537   1.697   6.984  0.7089  1.1962  0.0722
 8895SOL     OW28125   3.012   4.060  10.311  0.5150  0.8898  0.0110
 8895SOL    HW128126   2.946   4.012  10.261  0.4273  0.8281  0.1848
 8895SOL    HW228127   3.070   4.098  10.245  0.7105  0.3643 -0.1228
 8896SOL     OW28128   2.048   3.172   3.486  0.1152 -0.6566 -0.4713
 8896SOL    HW128129   2.079   3.191   3.575 -1.4008 -0.5106  0.0519
 8896SOL    HW228130   1.972   3.115   3.499 -0.9228  0.4231 -1.6105
 8897SOL     OW28131   7.872   5.343   4.085  1.1000 -0.2280 -0.1044
 8897SOL    HW128132   7.936   5.286   4.043  0.1858 -0.8914 -0.6261
 8897SOL    HW228133   7.924   5.395   4.147  2.5083  0.8350 -2.0506
 8898SOL     OW28134   1.851   5.245   0.513  0.1305 -0.0033  0.6455
 8898SOL    HW128135   1.814   5.325   0.549  0.0674  0.7633 -1.0039
 8898SOL    HW228136   1.926   5.274   0.461 -0.7660 -0.7976 -1.1860
 8899SOL     OW28137   5.207   2.638   3.475 -0.0359  0.4424 -0.9997
 8899SOL    HW128138   5.167   2.597   3.551  0.8451  2.2557  0.5312
 8899SOL    HW228139   5.135   2.653   3.415 -0.6375 -1.6977 -0.9041
 8900SOL     OW28140   4.278   5.611  12.369 -0.3265 -0.4109  0.8428
 8900SOL    HW128141   4.324   5.571  12.295 -0.2108  1.7682 -0.3306
 8900SOL    HW228142   4.348   5.637  12.430 -0.2332  0.0750  0.5291
 8901SOL     OW28143   7.283   6.213   5.845  0.1367  0.1823 -0.0496
 8901SOL    HW128144   7.277   6.128   5.801  0.5737 -0.1362  0.4814
 8901SOL    HW228145   7.353   6.201   5.910 -0.4663  0.6472  0.7068
 8902SOL     OW28146   2.674   4.621   9.335 -0.1631 -0.6004 -0.2930
 8902SOL    HW128147   2.707   4.535   9.308  1.7351 -0.3712  1.1114
 8902SOL    HW228148   2.740   4.655   9.396 -1.5856  1.2268  0.3494
 8903SOL     OW28149   7.106   1.850   2.387  0.1368 -0.1298  0.1973
 8903SOL    HW128150   7.113   1.917   2.455  1.2636  1.1153 -1.0969
 8903SOL    HW228151   7.197   1.828   2.366 -0.0426  1.4927 -2.7487
 8904SOL     OW28152   0.359   1.376   4.587  0.6869 -0.2179  0.3163
 8904SOL    HW128153   0.282   1.328   4.556  1.9938 -1.8645 -0.5185
 8904SOL    HW228154   0.416   1.309   4.624  2.6290  0.6377 -0.9629
 8905SOL     OW28155   7.048   7.244   0.647 -0.1336  0.4206 -0.1273
 8905SOL    HW128156   7.023   7.307   0.714  0.7418  0.0243  0.5979
 8905SOL    HW228157   6.980   7.176   0.651 -0.4612  0.7486 -0.1240
 8906SOL     OW28158   2.758   0.207  11.220  0.1336 -0.0688  0.0321
 8906SOL    HW128159   2.805   0.124  11.222  0.0194 -0.1599 -0.6258
 8906SOL    HW228160   2.827   0.273  11.216  0.2215 -0.1519  0.1900
 8907SOL     OW28161   5.922   0.900   4.615 -0.1424  0.5780 -0.0553
 8907SOL    HW128162   5.948   0.954   4.689  0.0166  0.1472  0.2030
 8907SOL    HW228163   5.936   0.957   4.539  0.7121  0.6690  0.1497
 8908SOL     OW28164   1.277   1.236   9.939 -0.0426  0.7675  0.0708
 8908SOL    HW128165   1.215   1.305   9.915  1.7085  1.9291 -1.3315
 8908SOL    HW228166   1.240   1.156   9.899 -1.4406  1.1037  0.6384
 8909SOL     OW28167   7.661   4.616   7.711  0.1907 -0.1056  0.3163
 8909SOL    HW128168   7.749   4.580   7.721  0.7020  1.1124  0.4016
 8909SOL    HW228169   7.644   4.662   7.794  0.0917  0.9257 -0.2509
 8910SOL     OW28170   5.398   1.148   9.812 -0.6074  0.4570  0.3145
 8910SOL    HW128171   5.329   1.132   9.876  0.4961 -2.4032  0.9797
 8910SOL    HW228172   5.476   1.107   9.850  0.3057 -0.6517 -2.4605
 8911SOL     OW28173   7.943   6.640   7.623  0.3360 -0.2842 -0.1679
 8911SOL    HW128174   7.876   6.577   7.649  0.0197  0.0450 -0.1779
 8911SOL    HW228175   8.023   6.588   7.613  0.4192 -0.4496  1.2280
 8912SOL     OW28176   3.827   4.790   6.380  0.4542 -0.0578  0.6969
 8912SOL    HW128177   3.817   4.720   6.316 -1.7556 -0.2345  1.1615
 8912SOL    HW228178   3.789   4.754   6.460 -1.3788  1.8936  0.7622
 8913SOL     OW28179   2.415   6.026   2.495  0.2263 -0.0499  0.7147
 8913SOL    HW128180   2.420   6.013   2.401 -1.6870  0.9319  0.4223
 8913SOL    HW228181   2.430   5.939   2.533 -0.3502 -0.7305 -0.5700
 8914SOL     OW28182   4.748   0.400   6.185 -0.1623  0.2793  0.0860
 8914SOL    HW128183   4.819   0.404   6.248 -1.2946  0.2981  1.3961
 8914SOL    HW228184   4.673   0.440   6.229 -1.5253 -1.4332 -0.5133
 8915SOL     OW28185   1.529   1.650   0.370 -1.0681  0.1287  0.3161
 8915SOL    HW128186   1.564   1.737   0.392 -1.0405 -0.0860  1.1656
 8915SOL    HW228187   1.464   1.667   0.302 -0.2769  0.6893 -0.3202
 8916SOL     OW28188   2.770   2.524   1.953 -0.5618  0.2687 -0.1887
 8916SOL    HW128189   2.831   2.496   1.885 -1.0914  0.1919 -0.6358
 8916SOL    HW228190   2.756   2.617   1.936 -3.1176 -0.3763 -2.1452
 8917SOL     OW28191   2.594   6.843  10.024 -0.1168 -0.0985  0.2760
 8917SOL    HW128192   2.601   6.913  10.089  1.4367 -0.6297  0.7159
 8917SOL    HW228193   2.584   6.763  10.076 -2.6887 -0.2018 -0.2220
 8918SOL     OW28194   7.259   4.789   5.108 -0.4274 -0.0763  0.8784
 8918SOL    HW128195   7.282   4.881   5.096  1.2161 -0.4740  0.6659
 8918SOL    HW228196   7.233   4.782   5.200 -1.1809  0.7115  0.7274
 8919SOL     OW28197   3.907   2.765   5.483 -0.1509 -0.3065  0.2423
 8919SOL    HW128198   3.917   2.857   5.459 -0.2792 -0.1075  0.9261
 8919SOL    HW228199   3.842   2.766   5.554  0.6661 -0.8126  1.0148
 8920SOL     OW28200   6.175   7.952   6.248 -0.0654  0.7409  0.2853
 8920SOL    HW128201   6.177   7.931   6.341 -0.5518 -0.0540  0.1277
 8920SOL    HW228202   6.258   7.996   6.231  0.5559 -0.1901  0.8515
 8921SOL     OW28203   7.061   3.008   1.306  0.0592  0.5950  0.0748
 8921SOL    HW128204   7.117   2.961   1.243  0.2592  0.0700  0.6428
 8921SOL    HW228205   7.109   3.090   1.323  0.6916  0.1261  0.5972
 8922SOL     OW28206   4.015   6.850   5.702  0.1988  1.0417 -0.0382
 8922SOL    HW128207   3.971   6.771   5.731  0.4849  0.8750 -0.0483
 8922SOL    HW228208   4.078   6.870   5.771  0.5415  0.9193 -0.3093
 8923SOL     OW28209   3.153   2.114   3.958 -0.4117 -0.5429  0.4694
 8923SOL    HW128210   3.154   2.065   4.040  1.0344 -3.3773 -1.1064
 8923SOL    HW228211   3.232   2.087   3.913  0.1352  2.8505 -0.8820
 8924SOL     OW28212   0.350   3.655   7.406 -0.2020  0.0342 -0.2577
 8924SOL    HW128213   0.403   3.716   7.355  0.7417 -0.4077  0.1592
 8924SOL    HW228214   0.296   3.711   7.462  0.8518  0.5184  0.3158
 8925SOL     OW28215   7.644   0.027   4.912 -0.0975 -0.2070  0.2704
 8925SOL    HW128216   7.602  -0.033   4.974 -0.0522 -0.4717  0.0484
 8925SOL    HW228217   7.735  -0.002   4.908  0.0293  0.1545  0.4949
 8926SOL     OW28218   4.928   4.650   1.979 -0.8648 -0.1861 -0.4049
 8926SOL    HW128219   4.994   4.607   2.034 -1.8442 -2.0242 -0.6018
 8926SOL    HW228220   4.899   4.725   2.031 -0.3756 -0.7553  0.7383
 8927SOL     OW28221   7.888   7.309  11.797  0.6955  0.2279 -0.0007
 8927SOL    HW128222   7.924   7.396  11.816  1.0343  0.1624 -0.3445
 8927SOL    HW228223   7.793   7.324  11.793  0.8002  0.7436 -0.8643
 8928SOL     OW28224   6.560   2.006   1.896  0.1811  0.6180 -0.0994
 8928SOL    HW128225   6.558   2.074   1.964 -0.9997  1.3680 -0.8400
 8928SOL    HW228226   6.650   2.007   1.864 -0.0701  2.7227 -0.9124
 8929SOL     OW28227   0.991   5.394   5.530 -0.1693  0.4338 -0.0287
 8929SOL    HW128228   1.007   5.303   5.504  0.4989  0.4796  0.1967
 8929SOL    HW228229   0.898   5.407   5.516 -0.1548 -0.0988 -0.6467
 8930SOL     OW28230   0.299   1.024   6.320 -0.1557 -0.6184  0.0044
 8930SOL    HW128231   0.341   1.087   6.379 -0.0224 -1.3243  0.6749
 8930SOL    HW228232   0.221   1.070   6.288 -0.1873 -0.1939  0.6675
 8931SOL     OW28233   6.853   4.108  11.249 -0.1725 -0.3675 -0.2823
 8931SOL    HW128234   6.915   4.139  11.182  0.7515 -0.2525  0.6031
 8931SOL    HW228235   6.890   4.138  11.332 -1.1455 -0.7681  0.3141
 8932SOL     OW28236   2.166   3.783  11.525  0.4103  0.1114  0.2267
 8932SOL    HW128237   2.228   3.711  11.536 -0.1613 -0.5110 -0.5213
 8932SOL    HW228238   2.082   3.740  11.508 -0.4203  0.9196  2.0184
 8933SOL     OW28239   3.533   3.731   2.182 -0.0289  0.2234  0.2605
 8933SOL    HW128240   3.459   3.733   2.243 -0.5097 -1.7475 -0.1751
 8933SOL    HW228241   3.601   3.682   2.227  0.0511 -0.2208 -0.3296
 8934SOL     OW28242   4.819   2.009   8.768  0.3401 -0.4852 -0.0819
 8934SOL    HW128243   4.904   1.982   8.733 -0.4379 -2.1053 -0.8099
 8934SOL    HW228244   4.767   2.031   8.691 -0.1210 -0.1316  0.3198
 8935SOL     OW28245   5.555   1.957   3.863  0.0696 -0.1228 -0.4627
 8935SOL    HW128246   5.515   2.015   3.798 -2.0344 -2.4318 -1.3449
 8935SOL    HW228247   5.600   1.891   3.811  1.3810 -0.0423  0.5221
 8936SOL     OW28248   2.617   0.156   5.539 -0.0264  0.8655 -0.2491
 8936SOL    HW128249   2.563   0.078   5.550  0.5289  0.6898  1.6356
 8936SOL    HW228250   2.642   0.156   5.447  2.0294 -2.6290  0.1325
 8937SOL     OW28251   4.972   2.522  11.650 -0.4692  0.4492 -0.8658
 8937SOL    HW128252   4.957   2.616  11.648 -0.5440  0.4251 -1.3825
 8937SOL    HW228253   4.954   2.492  11.562 -1.8542 -0.2751 -0.3584
 8938SOL     OW28254   0.891   0.973  10.784  0.5334 -0.3394 -0.4886
 8938SOL    HW128255   0.863   1.048  10.837  0.8361  0.7604 -1.8155
 8938SOL    HW228256   0.853   0.990  10.698 -0.2647 -2.2772 -0.5575
 8939SOL     OW28257   1.055   6.762   8.520  0.3512  0.2576  0.0926
 8939SOL    HW128258   1.118   6.810   8.574 -0.0925  0.1618  0.7112
 8939SOL    HW228259   1.048   6.676   8.561 -2.2822  1.1517  1.7958
 8940SOL     OW28260   7.176   1.805   6.560  0.9151 -0.3534 -0.4745
 8940SOL    HW128261   7.113   1.742   6.594  0.2730 -1.1811 -2.9396
 8940SOL    HW228262   7.146   1.823   6.471  2.6254  1.3742 -0.7736
 8941SOL     OW28263   1.694   6.508   5.872 -0.0242  0.6912  0.3612
 8941SOL    HW128264   1.762   6.563   5.909 -0.4244  2.4897 -1.3985
 8941SOL    HW228265   1.741   6.441   5.823  0.5600  2.1954 -1.2292
 8942SOL     OW28266   2.857   0.860   6.161 -0.2583 -0.5564  0.1758
 8942SOL    HW128267   2.780   0.815   6.126 -0.4093 -0.2048  0.0595
 8942SOL    HW228268   2.930   0.800   6.142 -0.3710 -0.4701 -0.5360
 8943SOL     OW28269   2.713   3.047   7.396 -0.2721  0.3965  0.6093
 8943SOL    HW128270   2.620   3.061   7.375 -0.7860  0.0523  2.4642
 8943SOL    HW228271   2.755   3.037   7.311 -2.0523 -0.1423 -0.2729
 8944SOL     OW28272   1.749   0.372   9.294 -0.0543  0.3459 -0.2626
 8944SOL    HW128273   1.802   0.370   9.215 -0.3918 -1.2518 -0.4906
 8944SOL    HW228274   1.786   0.304   9.350 -1.4832 -0.4413 -0.2043
 8945SOL     OW28275   4.604   2.912   9.173 -0.0159  0.5411  0.1290
 8945SOL    HW128276   4.514   2.881   9.190  0.0279 -0.1526 -0.8270
 8945SOL    HW228277   4.605   2.933   9.080  1.4451 -1.7312 -0.4477
 8946SOL     OW28278   0.188   0.066   2.888  0.6815 -0.3204  0.5701
 8946SOL    HW128279   0.158   0.084   2.799  1.7991 -0.5326  0.1327
 8946SOL    HW228280   0.277   0.102   2.891  0.1257  1.0369  2.0771
 8947SOL     OW28281   3.540   6.805   9.325  0.1990  0.3228 -0.1520
 8947SOL    HW128282   3.591   6.744   9.271  0.6916  1.5878 -1.1766
 8947SOL    HW228283   3.466   6.753   9.357 -0.3217 -0.4308 -2.3646
 8948SOL     OW28284   3.637   4.617  12.076  0.0369  0.0501  0.2619
 8948SOL    HW128285   3.658   4.674  12.150  0.3877 -1.9349  1.7737
 8948SOL    HW228286   3.554   4.576  12.100 -0.0389 -0.3409 -0.6187
 8949SOL     OW28287   5.751   1.133   1.546  0.2760  0.3512  0.3303
 8949SOL    HW128288   5.847   1.143   1.542  0.4373 -0.1622  2.1868
 8949SOL    HW228289   5.733   1.058   1.489  1.0729 -0.0722  0.6116
 8950SOL     OW28290   1.312   0.195   7.490  0.6770  0.0272  0.7967
 8950SOL    HW128291   1.283   0.128   7.428  0.1950 -0.9350  2.0206
 8950SOL    HW228292   1.240   0.258   7.493  0.3609 -0.3395  0.9645
 8951SOL     OW28293   1.448   3.570   4.626 -0.2637 -0.4423  0.4808
 8951SOL    HW128294   1.498   3.498   4.664 -2.2133 -0.6730  2.8455
 8951SOL    HW228295   1.362   3.533   4.609 -0.5661  0.7128 -0.6390
 8952SOL     OW28296   5.097   0.860   3.091 -0.3905  0.3875  0.0614
 8952SOL    HW128297   5.141   0.945   3.095  0.0349  0.2665 -1.4928
 8952SOL    HW228298   5.140   0.808   3.159  1.8064  0.3216 -1.3086
 8953SOL     OW28299   5.967   7.343   5.314 -0.4606 -0.2933  0.2247
 8953SOL    HW128300   5.941   7.420   5.263  0.1667 -0.3378 -0.1795
 8953SOL    HW228301   6.058   7.327   5.288  0.4560  0.6548  2.5604
 8954SOL     OW28302   4.719   5.523   9.964 -0.3634 -0.2838  0.1139
 8954SOL    HW128303   4.698   5.496  10.054  0.1269 -0.6430  0.1246
 8954SOL    HW228304   4.673   5.606   9.953 -0.3386 -0.1797  0.7386
 8955SOL     OW28305   2.495   0.568   4.425  0.3761 -0.0648  0.4799
 8955SOL    HW128306   2.517   0.530   4.510 -0.9922  1.4931  1.5958
 8955SOL    HW228307   2.423   0.628   4.443  0.8498  1.2515 -1.5766
 8956SOL     OW28308   1.737   1.922  12.262  0.0642 -0.2781 -0.1289
 8956SOL    HW128309   1.775   1.861  12.325  1.8485 -0.3810 -1.2282
 8956SOL    HW228310   1.692   1.865  12.199  1.1127 -0.4590 -0.7499
 8957SOL     OW28311   0.285   6.745   1.684  0.6463 -0.2988 -0.7907
 8957SOL    HW128312   0.372   6.743   1.644  1.5399 -0.5672  1.0517
 8957SOL    HW228313   0.297   6.793   1.767 -0.6745 -1.4082  0.0961
 8958SOL     OW28314   4.142   5.048  11.740 -0.0531  0.1302  0.2730
 8958SOL    HW128315   4.111   5.060  11.830 -0.2338 -1.2611  0.4124
 8958SOL    HW228316   4.112   4.960  11.716 -0.2227  0.5758 -1.2419
 8959SOL     OW28317   4.359   4.962  11.279 -0.2515  0.4275  0.6062
 8959SOL    HW128318   4.370   4.986  11.371 -0.0254 -1.7824  1.2115
 8959SOL    HW228319   4.322   4.874  11.281 -0.4173  0.3939 -1.4419
 8960SOL     OW28320   0.796   3.825   9.040  0.1658 -0.4470  0.2703
 8960SOL    HW128321   0.701   3.833   9.047  0.2310  0.8629 -0.0382
 8960SOL    HW228322   0.830   3.864   9.121  0.4775  1.1729 -0.5890
 8961SOL     OW28323   4.590   5.738   8.047  0.4072  0.2068  0.7059
 8961SOL    HW128324   4.644   5.807   8.086  1.6079 -0.7942  0.8587
 8961SOL    HW228325   4.564   5.774   7.962 -1.6802  2.1438  2.0405
 8962SOL     OW28326   0.432   2.311   4.876 -0.0766  0.0644 -0.4471
 8962SOL    HW128327   0.430   2.299   4.781 -0.4191  0.7019 -0.5300
 8962SOL    HW228328   0.358   2.260   4.909 -0.6341  0.7249 -0.6440
 8963SOL     OW28329   2.573   4.664   6.166  0.1554 -0.1082  0.1632
 8963SOL    HW128330   2.654   4.613   6.158  0.8001  0.6747  1.3148
 8963SOL    HW228331   2.583   4.735   6.102  1.1234  0.8843  1.3625
 8964SOL     OW28332   1.462   0.186   0.211  0.0746 -0.4951 -0.3679
 8964SOL    HW128333   1.548   0.143   0.208 -0.5804 -2.2700  2.7277
 8964SOL    HW228334   1.482   0.279   0.200  2.1579 -1.0120 -1.6336
 8965SOL     OW28335   4.394   7.658  10.436  0.2150  0.1309 -0.2320
 8965SOL    HW128336   4.468   7.707  10.400  0.5074  0.3161  0.5965
 8965SOL    HW228337   4.429   7.617  10.514 -1.2004  2.4110  1.7468
 8966SOL     OW28338   2.945   6.558   0.195  0.1289  0.1820 -0.1296
 8966SOL    HW128339   2.910   6.646   0.210 -2.7705 -1.2278  2.3679
 8966SOL    HW228340   2.920   6.537   0.105  0.3245  1.6309 -0.5490
 8967SOL     OW28341   4.555   3.593   2.194  0.3890  0.0752  0.1144
 8967SOL    HW128342   4.485   3.642   2.152  0.2586  1.1228  1.4926
 8967SOL    HW228343   4.511   3.538   2.259  0.7268 -0.2534  0.0710
 8968SOL     OW28344   3.230   7.085   2.640 -0.3658  0.0315  0.2100
 8968SOL    HW128345   3.262   6.995   2.627  0.9192  0.6517 -1.3370
 8968SOL    HW228346   3.275   7.115   2.718 -0.3486 -0.4731  0.4005
 8969SOL     OW28347   5.281   3.372   9.208 -0.1198  0.1776 -0.2314
 8969SOL    HW128348   5.353   3.319   9.242 -0.3000  0.6548  0.9678
 8969SOL    HW228349   5.323   3.449   9.170  0.0377  0.2827  0.1432
 8970SOL     OW28350   5.819   7.517   5.541 -0.0828 -0.3769  0.4922
 8970SOL    HW128351   5.794   7.563   5.621  0.3123 -1.4957  1.2827
 8970SOL    HW228352   5.909   7.487   5.557 -0.7192 -2.4246  0.4984
 8971SOL     OW28353   4.004   7.226   3.524 -0.3210  0.5681 -0.0836
 8971SOL    HW128354   3.975   7.191   3.608  2.0384 -0.7642  0.2456
 8971SOL    HW228355   4.086   7.270   3.543 -0.0099  0.7046 -1.6178
 8972SOL     OW28356   0.102   5.225  11.571  0.3932 -0.3335  0.3516
 8972SOL    HW128357   0.104   5.298  11.632 -2.5064  0.4306 -0.3102
 8972SOL    HW228358   0.078   5.149  11.624 -0.9844  0.1159  0.4312
 8973SOL     OW28359   5.292   1.191  11.668  0.0780 -0.8192 -0.7384
 8973SOL    HW128360   5.381   1.225  11.666  0.3681 -1.5790 -1.1821
 8973SOL    HW228361   5.261   1.196  11.578 -0.2840 -0.6781 -0.6118
 8974SOL     OW28362   1.287   2.998   9.032 -0.2412  0.2212  0.1495
 8974SOL    HW128363   1.372   2.954   9.036 -0.8380 -0.9338  0.4851
 8974SOL    HW228364   1.223   2.927   9.024 -1.0758  1.1307 -2.0180
 8975SOL     OW28365   1.032   7.937   8.282 -0.4092 -0.3471  0.4106
 8975SOL    HW128366   0.969   8.008   8.297 -1.2552 -0.6190 -1.5796
 8975SOL    HW228367   1.105   7.979   8.237 -0.8211 -0.6690 -0.5867
 8976SOL     OW28368   6.554   3.810   6.864 -0.0850 -0.3524  0.2384
 8976SOL    HW128369   6.507   3.843   6.941  0.9518  0.7529  0.4346
 8976SOL    HW228370   6.637   3.776   6.899  0.9400  1.2904 -0.4718
 8977SOL     OW28371   2.158   4.657   1.682 -0.3451  0.5739 -0.0302
 8977SOL    HW128372   2.107   4.576   1.686 -0.1279  0.2955 -1.8971
 8977SOL    HW228373   2.093   4.727   1.695 -0.2918  0.1586  3.3683
 8978SOL     OW28374   2.314   4.238   3.704 -0.9860  0.6157 -0.1606
 8978SOL    HW128375   2.404   4.262   3.726 -1.2006  0.4883  0.8863
 8978SOL    HW228376   2.261   4.312   3.735 -1.1700  1.1606 -1.6744
 8979SOL     OW28377   1.781   6.046   7.836 -0.0254  0.0650 -0.1490
 8979SOL    HW128378   1.750   6.124   7.881  1.0923  0.8988 -0.7727
 8979SOL    HW228379   1.705   6.013   7.789 -0.2281  1.4840 -0.8568
 8980SOL     OW28380   2.210   4.321   7.308 -0.0707  0.2171 -0.0620
 8980SOL    HW128381   2.292   4.272   7.313 -1.1025 -1.6539 -0.6049
 8980SOL    HW228382   2.230   4.394   7.250  1.6003  0.6674  1.0149
 8981SOL     OW28383   4.190   7.404   8.071 -0.0186  0.5854  0.2229
 8981SOL    HW128384   4.277   7.426   8.103  1.2555  0.5144 -2.8521
 8981SOL    HW228385   4.205   7.338   8.003 -2.4612  0.6017 -0.4392
 8982SOL     OW28386   4.488   1.436  12.148 -0.0144  0.1441  0.4583
 8982SOL    HW128387   4.535   1.512  12.114 -0.2451 -0.2536 -0.8091
 8982SOL    HW228388   4.396   1.453  12.127 -0.1300 -0.2516  0.6308
 8983SOL     OW28389   5.775   5.298   2.437  0.2296  0.3664 -0.0465
 8983SOL    HW128390   5.766   5.230   2.503 -0.4736 -0.6825 -1.1740
 8983SOL    HW228391   5.864   5.331   2.448  0.8474 -1.2531  0.0686
 8984SOL     OW28392   4.727   7.934  11.695  0.3475  0.1595  0.0796
 8984SOL    HW128393   4.762   8.002  11.753  0.3509  0.2097  0.0184
 8984SOL    HW228394   4.664   7.887  11.749  0.6116 -0.0197  0.2341
 8985SOL     OW28395   5.465   7.786   6.972  0.4622 -0.3905  0.3666
 8985SOL    HW128396   5.461   7.704   6.923  0.5246 -0.2980  0.2062
 8985SOL    HW228397   5.550   7.823   6.950  0.7917 -0.6970  1.1095
 8986SOL     OW28398   3.061   3.366   2.315  0.3227 -0.4975 -0.1817
 8986SOL    HW128399   3.144   3.344   2.357  0.5433 -0.4379 -0.5917
 8986SOL    HW228400   3.060   3.462   2.312  0.5438 -0.5118 -0.7903
 8987SOL     OW28401   4.704   1.811   2.818 -0.7161  0.8478  0.4865
 8987SOL    HW128402   4.685   1.809   2.725 -0.3421  2.3456  0.3432
 8987SOL    HW228403   4.721   1.720   2.842 -1.4493  0.3647 -0.7584
 8988SOL     OW28404   2.857   2.455   0.481 -0.2425 -0.1114  0.2841
 8988SOL    HW128405   2.772   2.474   0.442  1.1627  1.6069 -2.2089
 8988SOL    HW228406   2.881   2.537   0.525  0.5710 -0.2254  0.0611
 8989SOL     OW28407   4.002   0.033  11.763 -0.0637 -0.0736  0.1169
 8989SOL    HW128408   4.066  -0.037  11.776  0.0716  0.2225  1.1225
 8989SOL    HW228409   4.019   0.066  11.675  0.4572 -0.7107 -0.0281
 8990SOL     OW28410   4.665   7.797   2.663  0.4507  0.4624  0.0252
 8990SOL    HW128411   4.618   7.855   2.723 -1.1976 -0.7613  0.0132
 8990SOL    HW228412   4.742   7.768   2.712  0.1333  0.9576  0.8339
 8991SOL     OW28413   4.294   6.181   5.566  0.2820 -0.4954  0.0677
 8991SOL    HW128414   4.283   6.168   5.660  1.9720 -0.5278  0.2792
 8991SOL    HW228415   4.215   6.142   5.528 -1.3214  1.1046  1.5392
 8992SOL     OW28416   1.074   4.255   8.023  0.0132  0.3434  0.2430
 8992SOL    HW128417   1.108   4.290   7.941  0.5274 -0.6041  0.0386
 8992SOL    HW228418   0.989   4.298   8.034 -0.1929  0.2579 -0.9372
 8993SOL     OW28419   0.627   0.297   3.529 -0.3972 -0.2661 -0.3196
 8993SOL    HW128420   0.582   0.281   3.612 -1.1433 -0.0142 -0.6709
 8993SOL    HW228421   0.719   0.308   3.553 -0.3498 -1.7640  0.3060
 8994SOL     OW28422   4.643   1.196   0.845  0.4730  0.7107 -0.0331
 8994SOL    HW128423   4.719   1.146   0.874 -1.0650 -1.6948  0.1794
 8994SOL    HW228424   4.623   1.254   0.919  0.9053 -0.1057  0.7435
 8995SOL     OW28425   5.557   1.892   9.057  0.2661  0.0013 -0.1395
 8995SOL    HW128426   5.620   1.878   9.128 -0.4692  0.1712  0.5547
 8995SOL    HW228427   5.607   1.875   8.977  1.1064 -0.1831  0.4159
 8996SOL     OW28428   1.429   0.102   9.625  0.1973  0.1069  0.5100
 8996SOL    HW128429   1.435   0.159   9.701  0.7924 -1.6490  1.8559
 8996SOL    HW228430   1.400   0.159   9.554  1.0161  2.1012  1.6980
 8997SOL     OW28431   7.779   0.891   3.342  0.1400  0.0862 -0.1679
 8997SOL    HW128432   7.796   0.962   3.281  1.9480  0.4776  0.7067
 8997SOL    HW228433   7.832   0.912   3.419  0.2649 -1.8981  0.3643
 8998SOL     OW28434   0.927   1.544   3.052 -0.2679 -0.2997 -0.0353
 8998SOL    HW128435   0.962   1.455   3.048  0.2560 -0.1716  1.2178
 8998SOL    HW228436   0.999   1.597   3.086 -0.6515  0.5717 -0.5406
 8999SOL     OW28437   7.679   7.148   4.846  0.2445  0.3878 -0.1282
 8999SOL    HW128438   7.675   7.099   4.929 -0.3753  0.0910 -0.3276
 8999SOL    HW228439   7.759   7.117   4.804  0.9686  1.0889  0.6902
 9000SOL     OW28440   2.323   3.937   3.983  0.5989 -0.3600 -0.3968
 9000SOL    HW128441   2.335   4.003   4.052  0.7468  0.3672 -1.1022
 9000SOL    HW228442   2.289   3.860   4.029 -3.2350  1.3313  0.0183
 9001SOL     OW28443   6.901   3.348   6.363  0.3427  0.0898  0.3963
 9001SOL    HW128444   6.833   3.415   6.357  0.2533  0.1392  1.6829
 9001SOL    HW228445   6.978   3.390   6.325 -0.4115 -0.1073 -1.4567
 9002SOL     OW28446   6.830   2.434   3.020 -0.2298  0.5246  0.0659
 9002SOL    HW128447   6.891   2.504   2.996  0.3087 -0.1223 -0.5108
 9002SOL    HW228448   6.756   2.479   3.061 -0.3667  1.5275 -1.2204
 9003SOL     OW28449   6.594   2.825   6.142 -0.3589  0.2514 -0.1707
 9003SOL    HW128450   6.614   2.918   6.135 -0.1506  0.3908  1.6885
 9003SOL    HW228451   6.669   2.780   6.102 -0.6319  0.8624 -1.4056
 9004SOL     OW28452   7.377   3.368   3.623  0.0181  0.1220 -0.0210
 9004SOL    HW128453   7.443   3.339   3.686  0.8718  1.1005 -0.4373
 9004SOL    HW228454   7.386   3.306   3.550  0.9856  0.6702 -0.3829
 9005SOL     OW28455   7.440   0.340   8.090 -0.3528  0.2128 -0.4701
 9005SOL    HW128456   7.515   0.388   8.127  0.0066 -0.3569 -0.4345
 9005SOL    HW228457   7.376   0.337   8.161 -0.9027  1.7243 -0.8808
 9006SOL     OW28458   4.694   7.707   6.061 -0.9556  0.1004  0.3986
 9006SOL    HW128459   4.656   7.645   6.000 -1.7033  2.0655 -1.2423
 9006SOL    HW228460   4.620   7.738   6.113 -0.8239  0.5815  0.3046
 9007SOL     OW28461   7.858   4.914  10.170  0.2471 -0.7337  0.4809
 9007SOL    HW128462   7.911   4.854  10.223 -0.3376 -1.8906 -0.2114
 9007SOL    HW228463   7.917   4.942  10.100  0.1597 -1.5072  0.0835
 9008SOL     OW28464   4.427   6.907   3.909  0.5608 -0.1296 -0.1494
 9008SOL    HW128465   4.485   6.967   3.861  1.1527 -0.4403  0.1737
 9008SOL    HW228466   4.452   6.917   4.000  1.0133 -1.2310 -0.1341
 9009SOL     OW28467   7.473   6.518   5.833  0.2511  0.2705  0.5073
 9009SOL    HW128468   7.379   6.499   5.837  0.2050  0.4843  0.4677
 9009SOL    HW228469   7.503   6.512   5.924  0.1087  0.6462  0.5800
 9010SOL     OW28470   2.589   3.830   5.498 -0.0798 -0.2250 -0.2100
 9010SOL    HW128471   2.579   3.793   5.410  1.7725  0.2675 -0.6677
 9010SOL    HW228472   2.550   3.917   5.491  1.6097  0.5053 -1.0882
 9011SOL     OW28473   1.776   2.473   4.659 -0.4506 -0.1848 -0.3652
 9011SOL    HW128474   1.736   2.554   4.689  0.8625  0.3362  0.0396
 9011SOL    HW228475   1.865   2.476   4.693 -0.4152 -1.8576 -0.2408
 9012SOL     OW28476   5.575   2.383   0.315 -0.0126 -0.4341 -0.1839
 9012SOL    HW128477   5.623   2.435   0.250 -0.7138 -0.8946 -1.0873
 9012SOL    HW228478   5.615   2.296   0.310  0.8341 -0.1464  0.9837
 9013SOL     OW28479   3.652   2.326   3.527 -0.4126  0.4436 -0.5387
 9013SOL    HW128480   3.732   2.377   3.517  0.5918 -1.2438 -1.5405
 9013SOL    HW228481   3.593   2.383   3.575  1.6945  1.4192  1.0370
 9014SOL     OW28482   2.557   1.066   9.045  0.5950 -0.0768  0.4906
 9014SOL    HW128483   2.468   1.099   9.031  0.7869  0.7699  1.2107
 9014SOL    HW228484   2.557   0.980   9.002  0.1337  0.8959 -1.5505
 9015SOL     OW28485   5.496   0.659   4.153 -0.6282  0.2220 -0.2376
 9015SOL    HW128486   5.538   0.735   4.113  1.0886 -0.8557 -0.6096
 9015SOL    HW228487   5.408   0.689   4.176  0.2875  2.5764  0.4840
 9016SOL     OW28488   0.789   4.819   8.916  0.4283 -0.0061  0.5151
 9016SOL    HW128489   0.865   4.816   8.976  0.4281  0.7950  0.5607
 9016SOL    HW228490   0.736   4.743   8.942  1.4756 -0.9033  0.1200
 9017SOL     OW28491   1.385   5.602   5.233 -0.1442 -0.5600  0.4538
 9017SOL    HW128492   1.377   5.572   5.323 -0.7323 -1.7774  0.0150
 9017SOL    HW228493   1.442   5.537   5.191 -1.0447 -0.8249 -0.3958
 9018SOL     OW28494   1.648   5.471  10.796 -0.2762  0.1485 -0.6247
 9018SOL    HW128495   1.738   5.437  10.796 -0.1592  0.4415 -0.3148
 9018SOL    HW228496   1.610   5.436  10.877 -0.2456  0.5148 -0.4497
 9019SOL     OW28497   7.219   7.862   4.299 -0.0446 -0.1650  0.0599
 9019SOL    HW128498   7.277   7.939   4.308  0.1679 -0.4020  0.7655
 9019SOL    HW228499   7.275   7.794   4.262  0.0590 -0.3129  0.4861
 9020SOL     OW28500   5.491   3.446   0.461 -0.1828 -0.0792  0.0496
 9020SOL    HW128501   5.517   3.370   0.409  2.0450  0.8399 -0.3230
 9020SOL    HW228502   5.479   3.516   0.396 -1.0320  0.1970  0.4833
 9021SOL     OW28503   1.782   5.558   7.441  0.6168  0.2394 -0.4306
 9021SOL    HW128504   1.800   5.467   7.417 -0.2102 -0.0489  0.0251
 9021SOL    HW228505   1.785   5.559   7.537 -2.2273  0.0464 -0.2638
 9022SOL     OW28506   7.565   6.952   2.481 -0.1630 -0.7471  0.0108
 9022SOL    HW128507   7.496   6.902   2.525 -1.5372 -1.1069 -2.3730
 9022SOL    HW228508   7.534   7.042   2.482 -1.5884 -1.1138 -2.4413
 9023SOL     OW28509   1.734   7.075   8.564 -0.7207  0.2637  0.1366
 9023SOL    HW128510   1.736   7.143   8.496 -2.6528 -1.2890 -1.5880
 9023SOL    HW228511   1.793   7.007   8.532  0.8009  0.8133  1.6067
 9024SOL     OW28512   1.525   5.590   6.695 -0.0874  0.1489 -0.1805
 9024SOL    HW128513   1.587   5.660   6.712 -1.2962  0.7945  1.9732
 9024SOL    HW228514   1.535   5.530   6.769 -0.8850 -0.5897 -0.6450
 9025SOL     OW28515   5.218   7.401   0.510 -0.1134 -0.1104 -0.3118
 9025SOL    HW128516   5.209   7.439   0.423 -0.4597  0.0245 -0.2205
 9025SOL    HW228517   5.233   7.475   0.568 -0.3120 -0.1549 -0.1995
 9026SOL     OW28518   4.754   1.349   1.502 -0.3697 -0.0556 -0.1701
 9026SOL    HW128519   4.848   1.364   1.489 -0.2731  0.5823  1.1708
 9026SOL    HW228520   4.735   1.270   1.451  0.3698  1.1465 -2.4861
 9027SOL     OW28521   6.926   1.433   5.004 -0.8390 -0.2489 -0.1144
 9027SOL    HW128522   6.924   1.465   4.914  1.4676  2.6233  0.6645
 9027SOL    HW228523   6.851   1.476   5.046 -1.2945 -0.7434 -0.4127
 9028SOL     OW28524   6.035   5.708   3.154  0.6519  0.3718  0.6980
 9028SOL    HW128525   5.979   5.748   3.088  1.7451  0.0680 -0.4435
 9028SOL    HW228526   5.984   5.634   3.187 -0.1715  0.9274  0.6753
 9029SOL     OW28527   1.652   7.203   6.705 -0.1543  0.2436 -0.5500
 9029SOL    HW128528   1.599   7.281   6.724 -0.1465  0.4228 -1.2463
 9029SOL    HW228529   1.741   7.236   6.698  0.2227 -0.2083  1.6319
 9030SOL     OW28530   1.958   0.771   3.355  0.0716 -0.2113 -0.2440
 9030SOL    HW128531   1.988   0.710   3.286 -1.8950 -2.4966  0.7765
 9030SOL    HW228532   2.031   0.774   3.416 -0.1076 -2.4423  0.1789
 9031SOL     OW28533   5.800   0.984  10.870  0.0905 -0.3678 -0.0224
 9031SOL    HW128534   5.833   1.053  10.927  0.4736  0.3955 -1.1332
 9031SOL    HW228535   5.879   0.946  10.830 -0.0136 -2.2787  1.4497
 9032SOL     OW28536   2.527   7.394   8.219 -0.3812  0.3485 -0.3410
 9032SOL    HW128537   2.557   7.307   8.194  3.4096  0.7125  2.1706
 9032SOL    HW228538   2.471   7.380   8.295  1.1784  0.1042  0.7928
 9033SOL     OW28539   0.286   4.179   9.220  0.2541 -0.1092  0.0123
 9033SOL    HW128540   0.281   4.236   9.297 -0.4000  1.9583 -1.4644
 9033SOL    HW228541   0.285   4.090   9.255  0.3488  0.7686  2.3860
 9034SOL     OW28542   3.883   6.840   4.430 -0.2684 -0.6272  0.4382
 9034SOL    HW128543   3.910   6.920   4.475 -0.8014 -0.4487  0.4402
 9034SOL    HW228544   3.959   6.782   4.438 -0.2434 -0.4917  1.3111
 9035SOL     OW28545   6.522   5.894   3.716  0.2323 -1.0556 -0.5328
 9035SOL    HW128546   6.549   5.863   3.803  0.8811 -1.7106 -0.9597
 9035SOL    HW228547   6.476   5.820   3.678 -0.6348 -0.5420 -0.5037
 9036SOL     OW28548   0.825   2.070   2.345 -0.3893 -0.2400 -0.2321
 9036SOL    HW128549   0.778   2.044   2.266 -0.7669 -0.5963  0.1042
 9036SOL    HW228550   0.882   1.995   2.364 -0.4476 -0.2378 -0.0514
 9037SOL     OW28551   0.305   0.934  12.186  0.0637 -0.0428  0.6543
 9037SOL    HW128552   0.254   0.996  12.237  0.5004  1.8528 -1.0581
 9037SOL    HW228553   0.394   0.942  12.221 -0.2736 -1.5458  2.0067
 9038SOL     OW28554   7.473   5.023   1.434 -0.0453 -0.0534  0.5638
 9038SOL    HW128555   7.550   4.984   1.474 -0.0969 -2.4840 -1.4415
 9038SOL    HW228556   7.409   4.952   1.432 -1.5310  1.2394  0.0672
 9039SOL     OW28557   3.182   3.116   2.542 -0.7210  0.8368 -0.0605
 9039SOL    HW128558   3.167   3.086   2.632 -1.6043 -0.4189 -0.5940
 9039SOL    HW228559   3.105   3.169   2.521 -0.7717  0.6971 -0.2371
 9040SOL     OW28560   2.788   7.387   2.870 -0.1708 -0.3963  0.2684
 9040SOL    HW128561   2.735   7.353   2.798  0.5215 -0.1882 -0.3444
 9040SOL    HW228562   2.749   7.473   2.890  0.0463 -0.1660 -0.2988
 9041SOL     OW28563   0.509   0.652   3.756 -0.5978 -0.1669  0.1254
 9041SOL    HW128564   0.453   0.725   3.782 -0.4981  0.7316 -1.9834
 9041SOL    HW228565   0.463   0.574   3.788 -2.4313  0.6264 -0.4681
 9042SOL     OW28566   1.547   5.025   1.104  0.0587  0.3667 -0.5324
 9042SOL    HW128567   1.503   5.110   1.113 -0.3666  0.3689 -2.2532
 9042SOL    HW228568   1.605   5.036   1.030  0.0701 -0.8230 -0.7197
 9043SOL     OW28569   7.613   2.162  11.614  0.3828 -0.1578  0.2117
 9043SOL    HW128570   7.557   2.094  11.578  2.6927 -1.3951 -1.2834
 9043SOL    HW228571   7.652   2.123  11.692 -0.3944  0.5190  0.9656
 9044SOL     OW28572   7.150   0.010   0.254  0.2042  0.3065 -0.0025
 9044SOL    HW128573   7.188  -0.056   0.196  0.9234 -0.8632  1.7300
 9044SOL    HW228574   7.106  -0.040   0.322  1.6801  1.5407  1.9628
 9045SOL     OW28575   2.030   1.720   8.573 -0.8741  0.4253  0.9238
 9045SOL    HW128576   2.076   1.636   8.564 -0.5739  0.4757  1.8545
 9045SOL    HW228577   2.098   1.781   8.601 -0.8381  1.2725 -0.8800
 9046SOL     OW28578   1.875   5.932   6.744 -0.2210  0.6747  0.1018
 9046SOL    HW128579   1.901   5.997   6.678  0.2402  0.0375 -0.3619
 9046SOL    HW228580   1.914   5.964   6.825  0.9115  0.4461 -0.3251
 9047SOL     OW28581   7.463   4.883   2.927  0.0128 -0.7382 -0.0035
 9047SOL    HW128582   7.427   4.849   3.009  1.1386  0.4705  1.0351
 9047SOL    HW228583   7.558   4.876   2.937  0.1715 -1.4168 -1.6026
 9048SOL     OW28584   0.908   2.611   9.116 -0.5130 -0.0420 -0.0300
 9048SOL    HW128585   0.993   2.575   9.142 -0.5756 -0.2595 -0.1227
 9048SOL    HW228586   0.913   2.618   9.020 -0.5802 -0.0006 -0.0306
 9049SOL     OW28587   4.346   5.039   1.217 -0.2595  0.3456  0.1146
 9049SOL    HW128588   4.408   4.988   1.165  2.3707  2.6067  0.7448
 9049SOL    HW228589   4.358   5.008   1.307  0.7483  1.4240  0.3790
 9050SOL     OW28590   2.822   1.807   4.777 -0.0355  0.0610 -0.3845
 9050SOL    HW128591   2.820   1.867   4.703 -0.2788  0.3722 -0.1326
 9050SOL    HW228592   2.785   1.858   4.850 -2.3927 -1.0797 -0.6740
 9051SOL     OW28593   4.615   7.158   4.331 -0.0157 -0.2291 -0.3188
 9051SOL    HW128594   4.550   7.212   4.285 -0.4909 -1.3731 -1.0415
 9051SOL    HW228595   4.699   7.201   4.314 -0.3318  0.0536 -1.2242
 9052SOL     OW28596   6.910   0.560   5.762  0.0136  0.5950 -0.0667
 9052SOL    HW128597   6.994   0.588   5.797 -0.1896  0.1625  0.8165
 9052SOL    HW228598   6.914   0.465   5.762  0.2925  0.5626 -2.0102
 9053SOL     OW28599   6.180   3.941   8.761 -0.2953 -0.2983  0.0216
 9053SOL    HW128600   6.235   3.863   8.766  0.6656  0.4256  2.3300
 9053SOL    HW228601   6.241   4.014   8.770 -1.3766  0.6262  0.0859
 9054SOL     OW28602   6.641   6.593  10.826 -0.7933  0.3429 -0.1707
 9054SOL    HW128603   6.677   6.511  10.790  0.4274  1.3750 -1.4170
 9054SOL    HW228604   6.645   6.582  10.920 -0.1742 -0.8409 -0.3187
 9055SOL     OW28605   0.079   6.566  11.694 -0.3491 -0.4680  0.1179
 9055SOL    HW128606   0.031   6.631  11.643 -0.9422  1.3674  2.8016
 9055SOL    HW228607   0.012   6.506  11.726 -0.1402 -0.8815 -0.1990
 9056SOL     OW28608   1.868   2.221   7.354  0.8378 -0.4430 -0.2016
 9056SOL    HW128609   1.942   2.165   7.327  1.7930  0.6332  0.1192
 9056SOL    HW228610   1.866   2.290   7.287 -0.6987 -1.1412 -0.9174
 9057SOL     OW28611   4.391   0.538  10.822 -0.4511 -0.6382  0.5024
 9057SOL    HW128612   4.459   0.580  10.770 -1.6137 -0.4892 -0.9607
 9057SOL    HW228613   4.405   0.571  10.911  0.6660  0.2742  0.0125
 9058SOL     OW28614   3.246   6.772   4.612 -0.0279 -0.1173 -0.0154
 9058SOL    HW128615   3.202   6.743   4.692  0.1962 -1.5487 -0.3982
 9058SOL    HW228616   3.184   6.755   4.542 -0.7219  2.2655 -0.0700
 9059SOL     OW28617   5.988   0.056   3.744 -0.9268  0.1540 -0.0248
 9059SOL    HW128618   5.915   0.110   3.776  0.4178  0.9650  1.8685
 9059SOL    HW228619   5.949   0.001   3.676 -2.4141  3.4876 -2.1609
 9060SOL     OW28620   0.603   5.020   2.485 -0.2132 -0.1155 -0.1638
 9060SOL    HW128621   0.599   4.927   2.508  0.1019  0.1052  0.8197
 9060SOL    HW228622   0.696   5.041   2.484 -0.2785  0.1600 -0.5098
 9061SOL     OW28623   6.157   2.096   2.439 -0.5030 -0.7155 -0.0586
 9061SOL    HW128624   6.068   2.082   2.470 -0.6377  0.5366  0.1372
 9061SOL    HW228625   6.187   2.008   2.413 -1.5962 -1.2259  0.3559
 9062SOL     OW28626   1.545   3.368   5.619 -0.0735 -0.1828  0.4652
 9062SOL    HW128627   1.492   3.333   5.548  0.3517 -0.4978  0.3003
 9062SOL    HW228628   1.529   3.463   5.616 -1.5750 -0.3770  1.2034
 9063SOL     OW28629   6.919   0.134   6.480 -0.3908 -0.2845  0.1774
 9063SOL    HW128630   6.853   0.170   6.420  1.3869  0.4360 -1.4289
 9063SOL    HW228631   6.960   0.064   6.430  0.1623 -0.6435  1.1126
 9064SOL     OW28632   5.067   0.160  10.331  0.0272  0.5574  0.3613
 9064SOL    HW128633   4.998   0.226  10.324 -0.2836  0.5982  2.9233
 9064SOL    HW228634   5.076   0.143  10.425  0.4683 -2.6636 -0.1144
 9065SOL     OW28635   4.398   0.146  11.775 -0.2029  0.6034  0.1066
 9065SOL    HW128636   4.382   0.218  11.714 -0.3008  1.4136  1.0715
 9065SOL    HW228637   4.460   0.181  11.839 -1.6580  0.4749  1.6593
 9066SOL     OW28638   4.248   4.252   0.418 -0.7168  0.0709 -0.1469
 9066SOL    HW128639   4.182   4.206   0.470 -0.4001 -0.1458  0.0705
 9066SOL    HW228640   4.216   4.342   0.413 -2.3850 -0.5831 -2.3317
 9067SOL     OW28641   6.647   5.143  10.204  0.1838 -0.1713  0.3509
 9067SOL    HW128642   6.589   5.137  10.279  0.9992 -0.5689  0.9715
 9067SOL    HW228643   6.593   5.117  10.129 -0.4157 -0.5842  0.9210
 9068SOL     OW28644   6.663   2.187   2.237  0.6666  0.4108  0.4188
 9068SOL    HW128645   6.729   2.118   2.250 -1.2625 -1.6518 -0.1015
 9068SOL    HW228646   6.663   2.202   2.143 -0.6652 -0.8156  0.1796
 9069SOL     OW28647   5.921   6.893   1.786  0.4074  0.2537  0.0561
 9069SOL    HW128648   6.004   6.872   1.742  1.1025 -1.4430  1.9577
 9069SOL    HW228649   5.854   6.856   1.729  1.1820 -0.8854 -0.1719
 9070SOL     OW28650   1.687   4.050   7.344 -0.2811  0.0203  0.2050
 9070SOL    HW128651   1.657   4.018   7.258 -2.6163  2.8070 -0.1376
 9070SOL    HW228652   1.761   4.107   7.323 -0.2706 -0.0170  0.1387
 9071SOL     OW28653   7.294   0.559   2.125  0.5311 -0.0130  0.3984
 9071SOL    HW128654   7.239   0.629   2.158 -0.5068 -1.6347  2.3757
 9071SOL    HW228655   7.233   0.490   2.098  1.5195 -0.3374 -1.1859
 9072SOL     OW28656   2.675   5.919   9.989  0.0135 -0.3542 -0.1670
 9072SOL    HW128657   2.756   5.887  10.029 -0.4493 -3.1247 -1.2335
 9072SOL    HW228658   2.690   5.911   9.895 -1.3269 -0.4213 -0.3963
 9073SOL     OW28659   0.533   2.098   3.450  0.2036 -0.5416  0.1036
 9073SOL    HW128660   0.545   2.110   3.544 -1.5466  1.8137  0.1335
 9073SOL    HW228661   0.439   2.079   3.440  0.3534 -0.6739 -1.1708
 9074SOL     OW28662   3.665   0.960   0.234  0.2892 -0.5874 -0.1355
 9074SOL    HW128663   3.706   1.008   0.162  0.3052  0.0428  0.2811
 9074SOL    HW228664   3.724   0.886   0.251  0.8328 -0.1550 -0.0875
 9075SOL     OW28665   1.228   1.503   5.945  0.4312  0.4566 -0.0395
 9075SOL    HW128666   1.196   1.544   6.025 -1.0162 -0.8858  0.1264
 9075SOL    HW228667   1.214   1.569   5.877  1.7039  1.6249  0.7786
 9076SOL     OW28668   6.434   2.972   7.936  0.2233 -0.0329  0.1996
 9076SOL    HW128669   6.404   3.045   7.881  3.3387  0.9714 -0.3741
 9076SOL    HW228670   6.369   2.904   7.923 -2.6132  2.4494  0.4203
 9077SOL     OW28671   5.680   6.780  11.591 -0.5352  0.2396  0.3194
 9077SOL    HW128672   5.722   6.846  11.647  0.6618  0.4214 -0.7525
 9077SOL    HW228673   5.689   6.814  11.502 -1.7950 -0.3789 -0.0706
 9078SOL     OW28674   5.996   7.078   1.152 -0.1143 -0.0538 -0.7971
 9078SOL    HW128675   5.936   7.004   1.153 -0.1439 -0.1212 -2.7459
 9078SOL    HW228676   6.072   7.046   1.103  0.3132  0.8941 -0.7732
 9079SOL     OW28677   6.012   3.130   7.646 -0.2272 -0.6005 -0.6133
 9079SOL    HW128678   6.001   3.223   7.629  1.8260  0.2580  1.9620
 9079SOL    HW228679   6.097   3.124   7.691 -0.6772 -3.6051  0.0382
 9080SOL     OW28680   7.916   7.602   5.802 -0.0832 -0.5776 -0.3679
 9080SOL    HW128681   7.962   7.525   5.767 -1.9490 -0.7620 -2.6397
 9080SOL    HW228682   7.880   7.572   5.886  3.3695 -0.5396  1.3536
 9081SOL     OW28683   4.284   0.864  10.386  0.2370 -0.2055  0.3617
 9081SOL    HW128684   4.191   0.868  10.363  0.0687  0.4393  1.1137
 9081SOL    HW228685   4.329   0.855  10.301 -0.5653 -2.1169  0.0905
 9082SOL     OW28686   1.060   7.794   6.681  0.1957 -0.1210 -0.1767
 9082SOL    HW128687   1.147   7.797   6.721 -0.1626 -2.0840  0.9090
 9082SOL    HW228688   1.000   7.806   6.754 -0.4652  1.0805 -0.8981
 9083SOL     OW28689   7.202   5.357   8.852 -0.2613 -0.0241 -0.1389
 9083SOL    HW128690   7.241   5.269   8.851 -0.6215 -0.2180  1.0328
 9083SOL    HW228691   7.198   5.382   8.760  0.6149 -0.8907 -0.4395
 9084SOL     OW28692   7.429   3.605   7.634 -0.3038  0.3579  0.2196
 9084SOL    HW128693   7.421   3.661   7.711  0.6704  0.3761  0.3204
 9084SOL    HW228694   7.342   3.605   7.594 -0.8031  0.4024  1.2806
 9085SOL     OW28695   4.299   7.182   5.738 -0.2080 -0.4891  0.4219
 9085SOL    HW128696   4.388   7.189   5.704 -0.4002 -0.7804 -0.1532
 9085SOL    HW228697   4.243   7.190   5.661 -0.6712 -0.5267  0.7503
 9086SOL     OW28698   4.169   7.020   3.417  0.0458  0.3115 -0.4542
 9086SOL    HW128699   4.253   7.064   3.406 -0.1881  0.9233  0.1218
 9086SOL    HW228700   4.106   7.092   3.430 -0.2624 -0.1850  1.0679
 9087SOL     OW28701   0.520   4.651   3.318  0.6646  0.3981  0.0400
 9087SOL    HW128702   0.572   4.574   3.342  1.4880  0.5562 -1.1493
 9087SOL    HW228703   0.582   4.724   3.323  0.2578  0.7692 -0.2292
 9088SOL     OW28704   0.606   6.694   9.811  0.6109 -0.1613  0.7169
 9088SOL    HW128705   0.679   6.661   9.864  1.3082 -0.2974 -0.3037
 9088SOL    HW228706   0.644   6.707   9.724 -0.6324 -0.4057  0.1280
 9089SOL     OW28707   5.410   0.737   9.466 -0.5643  0.2856 -0.4659
 9089SOL    HW128708   5.448   0.742   9.378 -0.8976 -0.9967 -0.6956
 9089SOL    HW228709   5.465   0.675   9.513 -0.8594  0.3665 -0.0101
 9090SOL     OW28710   6.105   6.347  11.837 -0.2062 -0.0741 -0.7041
 9090SOL    HW128711   6.137   6.259  11.857 -1.3408 -0.1971  0.7665
 9090SOL    HW228712   6.182   6.403  11.844  0.0101 -0.5510  1.4074
 9091SOL     OW28713   4.692   0.438   2.859  0.3160  0.5728 -0.3066
 9091SOL    HW128714   4.735   0.426   2.774 -0.5388  1.2928 -0.8557
 9091SOL    HW228715   4.749   0.499   2.906  1.0259 -0.1708 -0.1747
 9092SOL     OW28716   2.598   6.196   8.095 -0.0528 -0.1280  0.2373
 9092SOL    HW128717   2.541   6.269   8.069 -3.1374 -2.2460  0.5171
 9092SOL    HW228718   2.638   6.224   8.177 -2.6992  0.5897  1.3859
 9093SOL     OW28719   0.808   1.224   9.085  0.0036  0.1901 -0.1550
 9093SOL    HW128720   0.713   1.219   9.093 -0.2213 -1.1429 -2.5165
 9093SOL    HW228721   0.828   1.316   9.097 -1.6100  0.5240  0.2203
 9094SOL     OW28722   3.970   7.427   1.771  0.0528 -0.1905 -0.4236
 9094SOL    HW128723   4.014   7.344   1.788 -0.3147 -0.5857 -1.3659
 9094SOL    HW228724   4.011   7.489   1.832  0.6530 -0.9522 -0.0429
 9095SOL     OW28725   3.748   5.787   4.085  0.2771  0.6587 -0.0093
 9095SOL    HW128726   3.825   5.842   4.103 -0.8941  1.8177  1.9499
 9095SOL    HW228727   3.719   5.758   4.172 -1.4575  0.2516 -0.6765
 9096SOL     OW28728   5.911   3.475  10.598  0.3541  0.0341 -0.4614
 9096SOL    HW128729   5.992   3.519  10.573  1.1875 -1.4149 -0.4448
 9096SOL    HW228730   5.932   3.432  10.680 -0.0625 -1.2784 -1.0172
 9097SOL     OW28731   1.684   1.407   3.547  0.0685  0.7059  0.2673
 9097SOL    HW128732   1.750   1.456   3.597  0.0805  0.5990  0.3555
 9097SOL    HW228733   1.618   1.473   3.524  0.8538  1.1045 -0.9548
 9098SOL     OW28734   4.833   5.958   4.910  0.1516 -0.3268 -0.1645
 9098SOL    HW128735   4.895   5.915   4.969  0.6611  0.0929 -0.3951
 9098SOL    HW228736   4.786   5.885   4.869  1.4279 -0.7002 -1.0101
 9099SOL     OW28737   5.742   2.624   3.862  0.1340  0.3159  0.4688
 9099SOL    HW128738   5.779   2.590   3.780 -0.3839 -0.7654  0.6697
 9099SOL    HW228739   5.777   2.566   3.929 -1.2800 -0.2437  0.7508
 9100SOL     OW28740   1.231   6.104   2.000 -0.1706 -0.5072 -0.1428
 9100SOL    HW128741   1.214   6.197   2.007  0.0184 -0.5010  0.2877
 9100SOL    HW228742   1.163   6.062   2.052 -0.6911 -0.6569 -0.9246
 9101SOL     OW28743   7.834   4.113   0.986  0.0571  0.2642 -0.4687
 9101SOL    HW128744   7.881   4.035   1.017 -2.3100 -1.2772 -0.4975
 9101SOL    HW228745   7.763   4.125   1.049  0.3478  2.4214 -0.4860
 9102SOL     OW28746   2.703   2.375   8.620 -0.3848 -0.3250 -0.4017
 9102SOL    HW128747   2.618   2.412   8.595 -1.5284 -2.1935  0.4924
 9102SOL    HW228748   2.740   2.438   8.682 -1.5739  0.0501 -0.0569
 9103SOL     OW28749   5.581   4.464   5.294 -0.5927 -0.3878  0.2875
 9103SOL    HW128750   5.505   4.517   5.319 -1.1683 -1.2875  0.4954
 9103SOL    HW228751   5.632   4.455   5.374 -1.0209 -0.9693  0.5104
 9104SOL     OW28752   7.748   4.748   9.933 -0.3536  0.3522 -0.2382
 9104SOL    HW128753   7.795   4.819   9.976 -1.4255  0.4507  0.8361
 9104SOL    HW228754   7.771   4.757   9.840  2.5208 -0.2613  0.3252
 9105SOL     OW28755   2.744   1.121   5.424  0.1609  0.1894  0.4411
 9105SOL    HW128756   2.680   1.174   5.377 -0.0989  0.8062  1.4770
 9105SOL    HW228757   2.767   1.052   5.362 -0.1079  1.0279 -0.6229
 9106SOL     OW28758   2.717   2.838   0.566  0.0980  0.6959  0.0607
 9106SOL    HW128759   2.766   2.787   0.631  1.2529  1.0948 -0.4703
 9106SOL    HW228760   2.765   2.824   0.484 -1.3262  0.2182 -0.7111
 9107SOL     OW28761   4.106   1.208   0.045 -0.2437  0.1254 -0.0233
 9107SOL    HW128762   4.151   1.288   0.071  2.2924 -1.2712  0.2412
 9107SOL    HW228763   4.098   1.158   0.127 -3.3982  0.7334  0.1693
 9108SOL     OW28764   4.565   5.404  11.869  0.1554 -0.4624 -0.1730
 9108SOL    HW128765   4.616   5.482  11.848  0.0950 -0.8119 -1.7732
 9108SOL    HW228766   4.474   5.434  11.865  0.0844 -0.8084 -1.8522
 9109SOL     OW28767   6.656   6.449   6.179  0.1761  0.5966 -0.1485
 9109SOL    HW128768   6.667   6.417   6.089  2.9566  1.3849 -0.1863
 9109SOL    HW228769   6.654   6.370   6.233 -0.3759  0.1586 -0.7883
 9110SOL     OW28770   2.531   6.126   3.371  0.3783  0.3132  0.4602
 9110SOL    HW128771   2.577   6.185   3.312  3.0017 -0.1951  1.8312
 9110SOL    HW228772   2.524   6.043   3.323 -0.3064  0.7719 -0.2414
 9111SOL     OW28773   6.524   2.305  12.383 -0.0056  0.3563  0.0852
 9111SOL    HW128774   6.484   2.391  12.368  1.5290  0.9198 -1.0818
 9111SOL    HW228775   6.569   2.285  12.301  1.0658 -0.7954  0.9199
 9112SOL     OW28776   1.310   3.631   6.213  0.5022  0.1037 -0.3154
 9112SOL    HW128777   1.272   3.543   6.211  0.6576 -0.0688  1.7064
 9112SOL    HW228778   1.380   3.625   6.278 -0.7951  2.1895  1.4025
 9113SOL     OW28779   3.899   4.463  11.426 -1.0243  0.6818 -0.5659
 9113SOL    HW128780   3.969   4.432  11.483  0.4889  0.9092 -2.2193
 9113SOL    HW228781   3.822   4.412  11.452 -0.0101 -0.2690  0.6570
 9114SOL     OW28782   4.724   0.799   5.196 -0.0698  0.2375  0.0061
 9114SOL    HW128783   4.675   0.847   5.130  0.1431 -0.3039 -0.5505
 9114SOL    HW228784   4.732   0.710   5.161  0.2896  0.0158  0.6262
 9115SOL     OW28785   5.581   7.200  10.427  0.0963 -0.0313  0.3261
 9115SOL    HW128786   5.544   7.232  10.344 -1.8083  0.9502  1.4861
 9115SOL    HW228787   5.617   7.278  10.469  2.5627 -0.7808 -0.2361
 9116SOL     OW28788   4.357   7.027   1.513 -0.1337 -0.1236  0.0383
 9116SOL    HW128789   4.282   7.071   1.553  0.4338  0.3982  0.5362
 9116SOL    HW228790   4.322   6.991   1.431 -1.8003 -2.7642  1.7572
 9117SOL     OW28791   7.026   5.514   6.832  0.5680 -0.0653  0.5354
 9117SOL    HW128792   7.021   5.591   6.775  0.1159 -0.2182  0.3632
 9117SOL    HW228793   7.113   5.519   6.871  0.7930  0.1730  0.0152
 9118SOL     OW28794   4.684   2.076  11.928  0.3101 -0.3881 -0.5844
 9118SOL    HW128795   4.719   2.070  12.017  2.0500 -0.4547 -1.2303
 9118SOL    HW228796   4.618   2.145  11.933  0.8628  0.0833  0.6047
 9119SOL     OW28797   6.257   5.861   5.213 -0.0903 -0.1021 -0.7858
 9119SOL    HW128798   6.169   5.880   5.245 -0.3750 -0.3581 -1.4032
 9119SOL    HW228799   6.285   5.785   5.263 -0.3709 -0.2502 -0.8542
 9120SOL     OW28800   7.904   6.340  11.382  0.3642  0.0423  0.4759
 9120SOL    HW128801   7.908   6.370  11.473  0.2390  1.0456  0.1724
 9120SOL    HW228802   7.995   6.325  11.358  0.3362 -1.1630  1.0428
 9121SOL     OW28803   3.758   2.637  11.687  0.7762 -0.0438  0.5916
 9121SOL    HW128804   3.800   2.604  11.767  2.5316 -1.8345 -0.9620
 9121SOL    HW228805   3.700   2.566  11.660  1.1769  0.0032 -0.4140
 9122SOL     OW28806   0.448   4.602   3.677  0.8216  0.3225  0.0392
 9122SOL    HW128807   0.378   4.636   3.622  1.4962  2.2996  0.3277
 9122SOL    HW228808   0.497   4.542   3.621  0.6226  1.1632 -1.0481
 9123SOL     OW28809   5.973   1.638   0.908 -0.0239  0.4404 -0.4452
 9123SOL    HW128810   6.025   1.676   0.837  1.0146  0.4128  0.2704
 9123SOL    HW228811   6.029   1.647   0.986 -0.8957 -0.0547  0.2577
 9124SOL     OW28812   3.944   6.021   1.609 -0.6964  0.1176  0.2080
 9124SOL    HW128813   3.984   6.081   1.673 -0.7271 -0.2574  0.5846
 9124SOL    HW228814   3.965   5.934   1.641  1.2000 -0.1096 -1.5070
 9125SOL     OW28815   2.635   7.789   1.055 -0.2340 -0.8573  0.3367
 9125SOL    HW128816   2.647   7.702   1.017  1.2494  0.1064 -1.5570
 9125SOL    HW228817   2.585   7.837   0.989 -2.1035 -0.5470  1.8779
 9126SOL     OW28818   2.817   2.329   9.896  0.2169 -0.2218  0.2247
 9126SOL    HW128819   2.829   2.403   9.956 -0.6706  1.1476 -1.2113
 9126SOL    HW228820   2.734   2.290   9.923 -0.0781  0.2631  0.0321
 9127SOL     OW28821   3.917   6.026   8.296  0.5885 -0.3297 -0.2274
 9127SOL    HW128822   3.919   6.120   8.313 -0.1643 -0.1276 -1.1949
 9127SOL    HW228823   3.999   6.008   8.250  0.1671  0.0797 -1.1463
 9128SOL     OW28824   4.098   2.595   9.004 -0.2413 -0.2534 -0.6252
 9128SOL    HW128825   4.054   2.552   8.930  1.5179 -0.7924 -1.4240
 9128SOL    HW228826   4.117   2.524   9.065  1.1910 -0.4013 -1.1884
 9129SOL     OW28827   5.367   2.636   4.952 -0.5258 -0.1231 -0.2076
 9129SOL    HW128828   5.442   2.578   4.960 -0.0460  0.4410 -0.5671
 9129SOL    HW228829   5.358   2.678   5.038  0.5941  1.0361 -0.6206
 9130SOL     OW28830   6.074   1.516  10.032 -0.4030  0.7983 -0.4314
 9130SOL    HW128831   6.118   1.598  10.009 -1.6411  1.0791 -2.0032
 9130SOL    HW228832   6.096   1.456   9.961  1.2594 -0.6198  1.1602
 9131SOL     OW28833   3.085   0.509   0.345  0.1109 -0.4699 -0.4266
 9131SOL    HW128834   3.141   0.468   0.279 -1.3321 -1.3890 -1.1072
 9131SOL    HW228835   3.084   0.446   0.417 -1.6759 -1.4769 -1.2591
 9132SOL     OW28836   1.850   2.833   1.483 -0.5835  0.3266  0.1933
 9132SOL    HW128837   1.863   2.911   1.430 -0.0888 -1.5838 -2.7642
 9132SOL    HW228838   1.928   2.780   1.467 -1.0774 -0.9530  1.7829
 9133SOL     OW28839   7.912   7.009   9.534 -0.1507  0.2681 -0.3528
 9133SOL    HW128840   7.961   7.076   9.581  2.8954 -1.7439 -0.3972
 9133SOL    HW228841   7.951   7.007   9.447  1.3142 -2.7925  0.2400
 9134SOL     OW28842   0.799   6.669   1.356 -0.5004 -0.0384 -0.0913
 9134SOL    HW128843   0.790   6.763   1.338 -1.0161  0.1162  0.9075
 9134SOL    HW228844   0.710   6.634   1.345 -1.0543  0.2083  2.8112
 9135SOL     OW28845   0.800   0.816   4.480  0.5752  0.5664 -0.2962
 9135SOL    HW128846   0.708   0.792   4.471  0.7339  0.5169 -2.1252
 9135SOL    HW228847   0.805   0.905   4.446  1.2181  0.5154 -0.3455
 9136SOL     OW28848   7.902   6.542   0.530  0.6418 -0.2860  0.0555
 9136SOL    HW128849   7.942   6.553   0.444  2.2575  0.8041  0.8918
 9136SOL    HW228850   7.974   6.513   0.586 -0.6240 -2.0949  0.8458
 9137SOL     OW28851   2.230   6.190   4.009 -0.3315 -0.2568  0.0925
 9137SOL    HW128852   2.170   6.229   3.946  0.2181 -1.0453 -0.9527
 9137SOL    HW228853   2.225   6.247   4.086 -1.5212  0.3406 -0.4034
 9138SOL     OW28854   6.397   7.118   1.786  0.2674 -0.1132  0.2823
 9138SOL    HW128855   6.405   7.212   1.803 -1.6163  0.0016  0.8323
 9138SOL    HW228856   6.309   7.108   1.749  0.2531 -1.6985  0.6568
 9139SOL     OW28857   7.410   5.492  11.652  0.1295 -0.5804  0.6220
 9139SOL    HW128858   7.388   5.522  11.564 -0.1092 -1.1491  0.4838
 9139SOL    HW228859   7.506   5.498  11.655  0.0339  1.7807  1.1906
 9140SOL     OW28860   6.329   6.220   3.683 -0.1684 -0.4027 -0.2430
 9140SOL    HW128861   6.405   6.265   3.645 -0.7037  0.0438 -0.7996
 9140SOL    HW228862   6.297   6.163   3.613 -0.9377  0.1448 -0.3414
 9141SOL     OW28863   3.104   3.266  12.242 -0.2474  0.1616  0.6323
 9141SOL    HW128864   3.083   3.283  12.150 -0.6957  1.2956  0.9308
 9141SOL    HW228865   3.043   3.320  12.291  0.5914  0.2711  1.5842
 9142SOL     OW28866   1.767   7.552   3.265 -0.2518  0.1041 -0.4841
 9142SOL    HW128867   1.798   7.468   3.300  0.8033 -0.0096 -1.6355
 9142SOL    HW228868   1.803   7.617   3.324  0.9852 -0.1239 -0.9548
 9143SOL     OW28869   0.301   4.841   8.405  0.2570 -0.2538  0.2171
 9143SOL    HW128870   0.303   4.750   8.373  0.0522 -0.1292 -0.1483
 9143SOL    HW228871   0.298   4.894   8.325  1.2178  0.1041  0.4031
 9144SOL     OW28872   3.744   7.579   3.707  0.1192  0.7006 -0.3188
 9144SOL    HW128873   3.649   7.566   3.705 -0.0531  1.6428  0.6064
 9144SOL    HW228874   3.770   7.588   3.616 -0.7391  0.7635 -0.5600
 9145SOL     OW28875   2.673   4.068   6.222 -0.6136 -0.6450 -0.2536
 9145SOL    HW128876   2.688   4.055   6.128 -1.4690 -0.5122 -0.4114
 9145SOL    HW228877   2.669   4.163   6.232  1.9649 -0.5158  0.3284
 9146SOL     OW28878   6.819   7.639   8.538  0.4745  0.1506  0.0940
 9146SOL    HW128879   6.862   7.638   8.624 -0.4258  2.8620  0.6777
 9146SOL    HW228880   6.734   7.598   8.553  1.5482 -2.3936 -0.3458
 9147SOL     OW28881   6.691   4.053   4.046 -0.0636  0.0857  0.3438
 9147SOL    HW128882   6.754   4.124   4.052 -0.2196  0.1670  1.1352
 9147SOL    HW228883   6.614   4.084   4.094  0.1570 -0.9159  1.3848
 9148SOL     OW28884   5.141   7.399  11.400  0.3008 -0.2148 -0.0375
 9148SOL    HW128885   5.082   7.371  11.330 -0.6532 -0.9384  1.0181
 9148SOL    HW228886   5.176   7.318  11.436  0.2235  0.1017  0.7782
 9149SOL     OW28887   3.615   3.439   0.668  0.5233 -0.1692 -0.1172
 9149SOL    HW128888   3.542   3.390   0.706  0.5054  0.6583  0.9611
 9149SOL    HW228889   3.642   3.499   0.737  2.3730 -0.5883 -0.4099
 9150SOL     OW28890   1.794   3.623   8.170 -0.4785 -0.3331 -0.3877
 9150SOL    HW128891   1.778   3.574   8.089 -0.3362  0.0257 -0.6385
 9150SOL    HW228892   1.867   3.681   8.147  0.2508 -0.9562  0.3039
 9151SOL     OW28893   0.555   0.666   2.660 -0.5505 -0.4342 -0.3716
 9151SOL    HW128894   0.537   0.734   2.726 -0.9553  0.5929 -1.5070
 9151SOL    HW228895   0.625   0.703   2.607 -0.5009 -1.0869 -0.7560
 9152SOL     OW28896   4.215   5.661   5.882  0.1286 -0.6940  0.2741
 9152SOL    HW128897   4.189   5.587   5.936  0.4161 -0.9285  0.0931
 9152SOL    HW228898   4.140   5.720   5.884  0.4897 -0.2556  1.6905
 9153SOL     OW28899   5.601   6.160   2.335  0.1321 -0.2789 -0.0110
 9153SOL    HW128900   5.558   6.218   2.397  3.7937  2.4138  0.3059
 9153SOL    HW228901   5.662   6.109   2.388  0.3587 -0.9573 -0.9011
 9154SOL     OW28902   0.166   0.035   8.852 -0.2179 -0.4405 -0.4395
 9154SOL    HW128903   0.246   0.055   8.902 -0.1937 -0.3370 -0.5191
 9154SOL    HW228904   0.120   0.119   8.847  0.0859 -0.3123 -1.1293
 9155SOL     OW28905   7.176   4.738   8.591 -0.0523 -0.2145  0.0044
 9155SOL    HW128906   7.148   4.824   8.625 -1.2849  0.2265 -1.9304
 9155SOL    HW228907   7.220   4.758   8.508  1.9338 -1.3140  0.7226
 9156SOL     OW28908   2.345   6.391   9.663  0.5589 -0.4757 -0.3503
 9156SOL    HW128909   2.312   6.349   9.583 -0.3538 -1.1305  0.3458
 9156SOL    HW228910   2.408   6.328   9.698 -0.0564 -0.8176  0.1583
 9157SOL     OW28911   7.914   0.188   4.654 -0.1187 -0.0589  0.4980
 9157SOL    HW128912   7.933   0.095   4.638  0.3947  0.1372 -0.1025
 9157SOL    HW228913   7.819   0.194   4.646 -0.5722 -1.1127  3.7820
 9158SOL     OW28914   1.255   5.341   1.337 -0.1783 -0.4754  0.4583
 9158SOL    HW128915   1.297   5.398   1.400 -0.8564 -0.3671  0.8217
 9158SOL    HW228916   1.175   5.387   1.311 -0.2353 -0.8080  0.0090
 9159SOL     OW28917   3.841   2.851   8.873  0.2504  0.1715  0.6911
 9159SOL    HW128918   3.832   2.945   8.858 -2.6984 -0.0099  0.5930
 9159SOL    HW228919   3.875   2.816   8.791  0.7862  1.0837  0.5186
 9160SOL     OW28920   0.763   0.167   5.687  0.3250 -0.0787 -0.5160
 9160SOL    HW128921   0.763   0.071   5.682 -1.1034 -0.0238 -3.3493
 9160SOL    HW228922   0.827   0.195   5.622  0.1043  0.9121 -0.3262
 9161SOL     OW28923   2.817   6.363  10.068  0.3424 -0.0733 -0.7070
 9161SOL    HW128924   2.807   6.406  10.152  1.0136  0.3786 -0.8514
 9161SOL    HW228925   2.854   6.431  10.011  0.2956 -0.4983 -1.2484
 9162SOL     OW28926   6.042   5.745   6.440  0.0588  0.1716  0.3085
 9162SOL    HW128927   5.970   5.808   6.436  0.1819  0.2465 -1.3005
 9162SOL    HW228928   6.032   5.692   6.361  0.5060 -1.2451  1.1683
 9163SOL     OW28929   5.329   4.307   0.718  0.5175  0.0347  0.5137
 9163SOL    HW128930   5.268   4.337   0.650  1.8397  0.6062 -0.4834
 9163SOL    HW228931   5.411   4.291   0.670  2.2000  2.6653  2.2510
 9164SOL     OW28932   0.913   7.259   6.535 -0.5073  0.0043  0.5935
 9164SOL    HW128933   0.989   7.240   6.591 -0.1325  0.9042  0.4162
 9164SOL    HW228934   0.951   7.303   6.458 -1.0187 -1.1944 -0.3616
 9165SOL     OW28935   3.075   2.944   3.138  0.1721 -0.3455 -0.2989
 9165SOL    HW128936   3.035   3.030   3.148 -0.2853 -0.7478  1.7903
 9165SOL    HW228937   3.160   2.962   3.096  0.9455  1.3889  1.8119
 9166SOL     OW28938   6.433   3.717  11.767 -0.1586  0.0378 -0.1056
 9166SOL    HW128939   6.429   3.648  11.700 -0.3224 -0.6057  0.5551
 9166SOL    HW228940   6.342   3.741  11.782 -0.0297  1.7025 -1.6246
 9167SOL     OW28941   3.018   2.034   0.708  0.3476  0.5337  0.5217
 9167SOL    HW128942   3.057   2.110   0.665  0.5938  0.4980  0.6822
 9167SOL    HW228943   3.085   1.966   0.701  0.6564  0.7258  1.5521
 9168SOL     OW28944   5.706   3.620   0.959  0.0031 -0.3271  0.2194
 9168SOL    HW128945   5.778   3.658   0.908 -0.2783  1.2305  0.9175
 9168SOL    HW228946   5.637   3.603   0.895  0.4251 -0.3660 -0.2256
 9169SOL     OW28947   5.493   1.971   9.319  0.3890  0.5767  0.2142
 9169SOL    HW128948   5.502   2.003   9.229  0.9012 -1.8873 -0.6870
 9169SOL    HW228949   5.566   1.910   9.330 -1.4432 -1.5636  1.1683
 9170SOL     OW28950   1.085   3.680   5.543  0.3110 -0.3068  0.1077
 9170SOL    HW128951   1.167   3.688   5.592  0.1412  1.4175  0.1932
 9170SOL    HW228952   1.093   3.745   5.472 -1.1030  0.1678  0.3423
 9171SOL     OW28953   1.259   4.745   5.116 -0.0545  0.1160 -0.1368
 9171SOL    HW128954   1.174   4.785   5.128  0.3692  1.1820 -0.5516
 9171SOL    HW228955   1.322   4.813   5.141  0.6747 -0.5182 -0.1980
 9172SOL     OW28956   1.045   1.049   3.497  0.1609  0.4149 -0.3984
 9172SOL    HW128957   1.008   1.130   3.462  0.4560  1.4951  1.6050
 9172SOL    HW228958   0.998   1.036   3.580  0.2678 -1.3756 -0.5908
 9173SOL     OW28959   0.879   7.138  11.360 -0.2751 -0.1979 -0.7466
 9173SOL    HW128960   0.841   7.213  11.405 -0.2900  1.1166 -2.7774
 9173SOL    HW228961   0.841   7.061  11.402  0.2999  0.8720  1.9049
 9174SOL     OW28962   7.676   5.941   6.960  0.5334 -0.2379 -0.4697
 9174SOL    HW128963   7.710   5.866   7.007  1.1039 -0.0639 -0.5986
 9174SOL    HW228964   7.622   5.903   6.890  0.4602 -0.5125 -0.2650
 9175SOL     OW28965   0.792   3.692  11.760  0.4375 -0.6846  0.4421
 9175SOL    HW128966   0.730   3.619  11.766  0.9615 -1.0557  1.5863
 9175SOL    HW228967   0.792   3.730  11.848  2.2574 -1.0428  0.6227
 9176SOL     OW28968   1.478   0.898  12.209  0.0900 -0.8949 -0.1511
 9176SOL    HW128969   1.445   0.852  12.287 -1.7496 -0.8196 -0.8445
 9176SOL    HW228970   1.455   0.841  12.136  2.3408 -1.2562 -0.6541
 9177SOL     OW28971   3.681   5.036  11.267 -0.0598  0.0659 -0.1860
 9177SOL    HW128972   3.617   5.102  11.239 -1.2934 -0.7038  0.7186
 9177SOL    HW228973   3.677   4.969  11.199 -1.8201 -0.9901  0.8634
 9178SOL     OW28974   6.800   6.216   4.815  0.1446  0.5404  0.3355
 9178SOL    HW128975   6.812   6.301   4.772 -1.0176  0.4684 -0.1997
 9178SOL    HW228976   6.783   6.155   4.742  1.5749 -0.2913  0.6594
 9179SOL     OW28977   7.414   6.405  10.279  0.1233  0.4254 -0.3959
 9179SOL    HW128978   7.482   6.417  10.345  0.5204  0.4941 -0.8078
 9179SOL    HW228979   7.395   6.311  10.281  0.6455  0.3098 -0.6755
 9180SOL     OW28980   3.654   6.872   3.972 -0.0009  0.3223 -0.0154
 9180SOL    HW128981   3.738   6.914   3.952 -0.1201  0.5272 -0.0940
 9180SOL    HW228982   3.643   6.883   4.066 -0.1931  0.7739 -0.0871
 9181SOL     OW28983   2.773   2.135   5.228 -0.0970 -0.5202 -0.1360
 9181SOL    HW128984   2.840   2.178   5.175 -1.1308  0.3883 -0.7413
 9181SOL    HW228985   2.712   2.097   5.165 -1.5251  0.8572  0.3520
 9182SOL     OW28986   6.653   6.157   8.328 -0.1795 -0.0711 -0.3371
 9182SOL    HW128987   6.744   6.134   8.313 -0.5552 -2.8329  0.9550
 9182SOL    HW228988   6.605   6.111   8.258 -0.5937  2.0822 -1.5579
 9183SOL     OW28989   1.893   5.078   7.758 -0.0483  0.5785  0.2144
 9183SOL    HW128990   1.822   5.032   7.805  0.3567 -0.3091 -0.0134
 9183SOL    HW228991   1.872   5.067   7.666  0.9811 -0.7182  0.1034
 9184SOL     OW28992   4.037   6.333   7.347 -0.1226 -0.8469 -0.5157
 9184SOL    HW128993   3.965   6.318   7.408 -0.5321 -0.6062 -0.9290
 9184SOL    HW228994   4.009   6.408   7.295  0.7408 -0.3066 -0.2198
 9185SOL     OW28995   6.626   0.915   9.126 -0.2231  0.2258 -0.6610
 9185SOL    HW128996   6.612   0.856   9.200  2.6478  0.4443  0.1756
 9185SOL    HW228997   6.643   0.856   9.052  0.5360 -0.0065 -0.3074
 9186SOL     OW28998   1.195   2.301   3.446  0.4085  0.7301 -0.3536
 9186SOL    HW128999   1.193   2.396   3.437  1.7263  0.7702 -0.5521
 9186SOL    HW229000   1.119   2.270   3.397 -0.4845  1.7168  0.3912
 9187SOL     OW29001   7.362   7.373   5.764 -0.1185  0.1117 -0.0246
 9187SOL    HW129002   7.350   7.331   5.849 -0.6796 -0.4780 -0.3892
 9187SOL    HW229003   7.424   7.444   5.781 -0.3959  0.1399  0.9162
 9188SOL     OW29004   0.634   4.379   4.634 -0.1063 -0.0030 -0.3507
 9188SOL    HW129005   0.564   4.393   4.569  0.0891 -0.7917 -0.7402
 9188SOL    HW229006   0.715   4.397   4.587  0.0347 -0.5383 -0.3170
 9189SOL     OW29007   2.488   6.440   3.841  0.4720 -0.2727 -0.5638
 9189SOL    HW129008   2.556   6.483   3.789  1.4030  0.1239  0.9303
 9189SOL    HW229009   2.474   6.356   3.796  0.8804  0.2607 -1.7279
 9190SOL     OW29010   5.807   0.512  10.486  0.1584 -0.6076  0.4085
 9190SOL    HW129011   5.836   0.581  10.426 -0.3579 -0.7271  0.0082
 9190SOL    HW229012   5.756   0.558  10.553  1.7075 -0.3211  1.4457
 9191SOL     OW29013   3.049   5.918  11.271 -0.3050  0.5085 -0.5419
 9191SOL    HW129014   3.116   5.870  11.320 -0.3610  0.0312 -0.9255
 9191SOL    HW229015   2.997   5.850  11.228  0.3868  0.9075 -2.1113
 9192SOL     OW29016   0.613   5.846   8.586  0.3977 -0.7226  0.0485
 9192SOL    HW129017   0.534   5.814   8.542  1.1904  0.2498 -2.1941
 9192SOL    HW229018   0.597   5.939   8.600  1.2639 -0.4480 -0.7263
 9193SOL     OW29019   5.562   4.165   4.706  0.0441 -0.3352 -0.5070
 9193SOL    HW129020   5.497   4.200   4.645 -1.7268 -1.0389  0.8764
 9193SOL    HW229021   5.570   4.233   4.773 -3.1831 -2.1705  2.0301
 9194SOL     OW29022   6.008   7.154   7.763  0.1089 -0.3891 -0.3299
 9194SOL    HW129023   6.078   7.218   7.756  1.6695 -1.5942  2.4372
 9194SOL    HW229024   5.959   7.180   7.841  0.5657 -2.2635  0.6514
 9195SOL     OW29025   7.118   7.745   5.369  0.4547  0.3789 -0.1135
 9195SOL    HW129026   7.128   7.654   5.396 -0.7586  0.3247  0.2456
 9195SOL    HW229027   7.078   7.788   5.444 -0.5808  0.8043 -0.8785
 9196SOL     OW29028   2.365   7.453  10.360 -0.3398 -0.5193  0.3434
 9196SOL    HW129029   2.418   7.497  10.293 -1.4509 -4.0049 -3.2335
 9196SOL    HW229030   2.428   7.426  10.426  1.7152 -0.8430 -1.6097
 9197SOL     OW29031   1.408   4.889   1.336  0.1426 -0.3774 -0.2135
 9197SOL    HW129032   1.444   4.902   1.249 -1.8386  0.8843 -0.9131
 9197SOL    HW229033   1.471   4.931   1.395  0.8602 -0.0881 -1.1738
 9198SOL     OW29034   5.474   5.638   6.780  0.1680  0.6081  0.6859
 9198SOL    HW129035   5.390   5.657   6.823 -0.5038  0.2729 -0.4577
 9198SOL    HW229036   5.462   5.553   6.739  0.5594  1.1997 -0.7262
 9199SOL     OW29037   4.902   2.629   5.672  0.6086 -0.3036  0.0099
 9199SOL    HW129038   4.810   2.609   5.658  0.0967 -0.0455  2.5419
 9199SOL    HW229039   4.938   2.638   5.584 -1.2200 -2.7423 -1.1181
 9200SOL     OW29040   0.935   0.437  10.348  0.3369  0.1060  0.2217
 9200SOL    HW129041   0.922   0.409  10.439  1.5422 -0.5863  0.1884
 9200SOL    HW229042   0.939   0.533  10.354  1.2955  0.0313  1.0249
 9201SOL     OW29043   6.901   2.173   8.158  0.2205 -0.3412  0.1487
 9201SOL    HW129044   6.872   2.152   8.247 -2.4391  0.4579 -0.4379
 9201SOL    HW229045   6.869   2.262   8.144  2.2215  0.2483 -1.0051
 9202SOL     OW29046   0.509   0.869   8.464 -0.0589  0.0557  0.2435
 9202SOL    HW129047   0.534   0.807   8.395 -1.2680 -1.0716  0.7676
 9202SOL    HW229048   0.413   0.866   8.465 -0.0731 -0.3859  2.3337
 9203SOL     OW29049   2.935   2.897   5.985  0.2332  0.8385  0.7651
 9203SOL    HW129050   2.927   2.923   6.076  0.3909  0.5905  0.8485
 9203SOL    HW229051   2.936   2.980   5.936  1.1326  1.0046  1.0590
 9204SOL     OW29052   6.292   3.540   7.064 -0.3566 -0.2448 -0.1134
 9204SOL    HW129053   6.325   3.465   7.014 -1.9943 -0.9685 -0.1593
 9204SOL    HW229054   6.201   3.548   7.038 -0.6899  0.6660  1.2246
 9205SOL     OW29055   0.282   4.686   3.485 -0.2017  0.1780 -0.3355
 9205SOL    HW129056   0.285   4.773   3.526  0.8141 -0.8705  2.0399
 9205SOL    HW229057   0.356   4.685   3.425  0.8298  0.4350  0.8846
 9206SOL     OW29058   7.696   2.849   5.945 -0.0761  0.1477 -0.3156
 9206SOL    HW129059   7.698   2.923   6.005 -0.9560 -0.4058  0.4306
 9206SOL    HW229060   7.699   2.889   5.858 -0.5815  1.0679  0.0675
 9207SOL     OW29061   6.675   1.650   9.763  0.0770  0.1497  0.7470
 9207SOL    HW129062   6.721   1.683   9.686 -0.5944 -0.3098  0.1369
 9207SOL    HW229063   6.744   1.615   9.819  0.6752  1.4474  0.8427
 9208SOL     OW29064   4.607   5.914   7.841 -0.8238  0.5844  0.0389
 9208SOL    HW129065   4.553   5.992   7.840 -0.4012  0.9159  1.4067
 9208SOL    HW229066   4.570   5.858   7.773 -2.6320  0.9729  0.6577
 9209SOL     OW29067   5.416   7.768   6.484 -0.2377 -0.8068 -0.0816
 9209SOL    HW129068   5.444   7.688   6.529  0.1994 -0.4714  0.2481
 9209SOL    HW229069   5.489   7.792   6.428 -1.2528 -1.9221 -1.9717
 9210SOL     OW29070   1.432   1.412  11.469  0.0162 -0.0885  0.4363
 9210SOL    HW129071   1.340   1.436  11.482 -0.2529  1.2739 -3.0048
 9210SOL    HW229072   1.430   1.317  11.459 -1.0136 -0.0773  0.3913
 9211SOL     OW29073   5.986   6.595   7.881  0.6883  0.0683  0.0001
 9211SOL    HW129074   6.024   6.557   7.802  0.5975 -0.7597  0.3362
 9211SOL    HW229075   5.921   6.658   7.849  2.3752  1.5851 -0.5794
 9212SOL     OW29076   0.558   7.821   9.775  0.3586 -0.3040  0.1210
 9212SOL    HW129077   0.646   7.841   9.809  0.7676  0.1971 -1.1600
 9212SOL    HW229078   0.562   7.728   9.753  0.5701 -0.2877  0.0811
 9213SOL     OW29079   1.949   0.389   3.444  0.1678 -0.2178 -0.3617
 9213SOL    HW129080   1.977   0.449   3.513 -0.4336  0.4524 -0.6950
 9213SOL    HW229081   1.869   0.427   3.410 -0.3533 -1.3399 -0.4224
 9214SOL     OW29082   2.526   4.365   5.273  0.1182  0.4905 -0.0498
 9214SOL    HW129083   2.538   4.288   5.217 -2.7180 -0.9659  1.1689
 9214SOL    HW229084   2.523   4.438   5.212  0.8582 -0.5844 -1.4427
 9215SOL     OW29085   2.247   3.804   1.439  0.2873  0.3767 -0.1464
 9215SOL    HW129086   2.187   3.732   1.459 -0.2657  1.1851  1.3206
 9215SOL    HW229087   2.309   3.804   1.512  1.5249  0.1361 -1.1836
 9216SOL     OW29088   3.891   3.608  11.982 -0.2151  0.0382  0.0281
 9216SOL    HW129089   3.943   3.553  12.040  1.4929 -0.5852 -1.9548
 9216SOL    HW229090   3.838   3.547  11.931 -0.3791  0.4291 -0.2816
 9217SOL     OW29091   1.384   5.734   2.341 -0.0106  0.3230  0.0969
 9217SOL    HW129092   1.352   5.824   2.354  0.2354  0.5195 -0.6217
 9217SOL    HW229093   1.352   5.710   2.254  0.9741  0.1709 -0.2372
 9218SOL     OW29094   7.919   1.090   3.921 -0.4780 -0.0170 -0.2208
 9218SOL    HW129095   7.962   1.140   3.991  0.4222  0.9072 -1.3858
 9218SOL    HW229096   7.974   1.011   3.912 -0.4190  0.0096 -0.1073
 9219SOL     OW29097   2.928   4.714   8.752  0.1309  0.2413 -0.2117
 9219SOL    HW129098   2.895   4.749   8.835  0.6306  1.9737 -0.6978
 9219SOL    HW229099   2.849   4.689   8.703 -0.3214  1.4433 -0.1333
 9220SOL     OW29100   3.350   1.167   7.439 -0.9243  0.0607 -0.1874
 9220SOL    HW129101   3.326   1.183   7.348  2.5178  0.5351 -1.1624
 9220SOL    HW229102   3.303   1.233   7.489 -0.4269  1.9172 -2.0491
 9221SOL     OW29103   2.505   3.837   7.738 -0.8517 -0.3543 -0.2644
 9221SOL    HW129104   2.600   3.829   7.737 -0.8099  0.1032 -0.4035
 9221SOL    HW229105   2.482   3.863   7.649 -1.0548  0.0665 -0.0920
 9222SOL     OW29106   2.552   1.353   3.115 -0.6697  0.0683 -0.1792
 9222SOL    HW129107   2.528   1.336   3.024  0.4514  1.8492 -0.8531
 9222SOL    HW229108   2.521   1.441   3.132 -0.4448 -0.0722  1.0162
 9223SOL     OW29109   2.369   4.475   6.136  0.0116  0.6513 -0.1636
 9223SOL    HW129110   2.431   4.539   6.168  0.5667 -0.5916  1.3825
 9223SOL    HW229111   2.339   4.510   6.052  2.8628  1.2428 -1.0259
 9224SOL     OW29112   5.377   6.794   7.707  0.1144 -0.7878 -0.1410
 9224SOL    HW129113   5.413   6.718   7.662  0.6874 -0.4563 -0.2437
 9224SOL    HW229114   5.286   6.769   7.727 -0.4272 -0.6353 -2.1916
 9225SOL     OW29115   1.085   5.349   3.443  0.2511  0.3266 -0.6380
 9225SOL    HW129116   1.162   5.406   3.449 -0.2247  0.8638  0.6978
 9225SOL    HW229117   1.120   5.260   3.453  0.5279  0.6640  2.1919
 9226SOL     OW29118   0.953   3.252   1.773 -0.5641  0.2659  0.0303
 9226SOL    HW129119   0.937   3.332   1.822  0.2072  0.2664  0.2975
 9226SOL    HW229120   0.913   3.183   1.826 -0.4928  0.3744  0.2279
 9227SOL     OW29121   3.399   0.468   4.809 -0.3775 -0.3903  0.1246
 9227SOL    HW129122   3.459   0.543   4.804  0.9143 -1.3723  0.4587
 9227SOL    HW229123   3.387   0.442   4.717 -0.7300  0.1400  0.0165
 9228SOL     OW29124   7.605   0.730   7.487  0.3508  0.3394  0.4256
 9228SOL    HW129125   7.550   0.697   7.557  1.2499 -1.3968  0.3607
 9228SOL    HW229126   7.653   0.804   7.526 -2.4411  2.4123  0.2715
 9229SOL     OW29127   7.838   6.787   2.242 -0.0189 -0.2416  0.0044
 9229SOL    HW129128   7.881   6.730   2.178 -0.5028 -1.9538  1.1235
 9229SOL    HW229129   7.751   6.747   2.255 -0.7532  1.3233  0.1315
 9230SOL     OW29130   0.544   7.784   7.835  0.0395 -0.0926  0.1225
 9230SOL    HW129131   0.499   7.775   7.919 -0.2304 -1.4128 -0.1379
 9230SOL    HW229132   0.514   7.868   7.800 -0.6344 -0.0109  0.8741
 9231SOL     OW29133   2.529   0.616   4.070 -0.2253 -0.3104  0.6286
 9231SOL    HW129134   2.459   0.562   4.032 -0.1176  0.6187 -0.9868
 9231SOL    HW229135   2.602   0.608   4.008  1.1390 -1.2185  2.2525
 9232SOL     OW29136   0.763   2.311   1.706 -0.0223 -0.4189 -0.1045
 9232SOL    HW129137   0.773   2.218   1.687 -0.2820 -0.3528 -0.5891
 9232SOL    HW229138   0.694   2.315   1.771 -0.1155 -0.5583 -0.1935
 9233SOL     OW29139   7.782   4.580   3.956 -0.4274  0.1162  0.4755
 9233SOL    HW129140   7.874   4.563   3.976 -0.2016  0.3015 -0.3720
 9233SOL    HW229141   7.734   4.520   4.014  0.3074 -2.5825 -1.5000
 9234SOL     OW29142   2.100   3.279   5.781  0.0445 -0.3791 -0.1542
 9234SOL    HW129143   2.140   3.299   5.697 -0.6253 -0.8638 -0.5995
 9234SOL    HW229144   2.006   3.290   5.766 -0.0584 -0.1264  0.6269
 9235SOL     OW29145   2.523   1.582   5.160 -0.6852 -0.0784  0.4145
 9235SOL    HW129146   2.609   1.622   5.170 -0.7840 -0.0055  1.0470
 9235SOL    HW229147   2.540   1.488   5.157 -0.2822 -0.0109 -2.8764
 9236SOL     OW29148   0.491   6.108   8.275 -0.6117  0.0092 -0.3069
 9236SOL    HW129149   0.455   6.020   8.263 -1.7499  0.4496 -0.1892
 9236SOL    HW229150   0.439   6.146   8.346 -0.3764  0.9079 -0.6018
 9237SOL     OW29151   3.764   1.877  12.083 -0.2965  0.1047 -0.3144
 9237SOL    HW129152   3.799   1.789  12.097 -1.2850 -0.3810 -0.8513
 9237SOL    HW229153   3.681   1.878  12.132  0.6435  1.4140  1.3943
 9238SOL     OW29154   4.046   5.845   4.427 -0.5988  0.4969 -0.3211
 9238SOL    HW129155   3.991   5.808   4.358  0.3687  0.2293 -0.9706
 9238SOL    HW229156   4.118   5.783   4.436  0.0583  1.2707 -0.1008
 9239SOL     OW29157   6.822   3.167   0.754 -0.2662 -0.3625 -0.6562
 9239SOL    HW129158   6.765   3.093   0.730 -2.0142 -0.1320  2.3024
 9239SOL    HW229159   6.895   3.126   0.800 -0.5854 -0.3491 -0.1313
 9240SOL     OW29160   4.867   4.167  12.297 -0.6001 -0.2552 -0.3149
 9240SOL    HW129161   4.847   4.259  12.281  0.2272  0.0002  0.0893
 9240SOL    HW229162   4.957   4.157  12.268 -0.5579 -0.8474  0.0219
 9241SOL     OW29163   1.063   7.522   5.948  0.3432  0.2904 -0.5524
 9241SOL    HW129164   1.083   7.615   5.938  0.4231  0.3734  0.2925
 9241SOL    HW229165   1.149   7.480   5.957  0.3019  0.6113  2.7911
 9242SOL     OW29166   6.812   6.513   3.657 -0.4313  0.3834 -0.3371
 9242SOL    HW129167   6.792   6.582   3.595  0.4029  0.9799  0.0433
 9242SOL    HW229168   6.902   6.488   3.639  0.4236  1.7293  1.6670
 9243SOL     OW29169   5.124   1.188   4.554  0.4945  0.2813 -0.1215
 9243SOL    HW129170   5.030   1.177   4.565  0.5930  0.6220  1.3112
 9243SOL    HW229171   5.152   1.111   4.505 -0.6552  0.6714 -1.4578
 9244SOL     OW29172   6.188   2.581   6.334 -0.4511 -0.1267  0.8875
 9244SOL    HW129173   6.098   2.557   6.357 -1.1970  0.2170 -1.3746
 9244SOL    HW229174   6.183   2.675   6.316  0.4477 -0.0479  1.0269
 9245SOL     OW29175   3.298   6.392   2.549 -0.3057 -0.0081 -0.1915
 9245SOL    HW129176   3.244   6.416   2.473  0.7782  3.1505 -0.1120
 9245SOL    HW229177   3.323   6.301   2.533 -1.4136  0.0618 -2.8164
 9246SOL     OW29178   4.287   3.760   9.747  0.3377 -0.0262  0.2825
 9246SOL    HW129179   4.357   3.796   9.801 -0.7453  1.2447  0.8837
 9246SOL    HW229180   4.284   3.816   9.670  1.4009 -1.4072 -0.8383
 9247SOL     OW29181   5.176   0.740   6.156 -0.4699 -0.0876 -0.0465
 9247SOL    HW129182   5.176   0.653   6.116  2.0577  0.1714 -0.7227
 9247SOL    HW229183   5.181   0.801   6.083  0.4136  0.5320  0.5112
 9248SOL     OW29184   3.619   3.619  10.983 -0.4403 -0.1569  0.2772
 9248SOL    HW129185   3.608   3.662  10.898  1.3608  0.9554  0.5537
 9248SOL    HW229186   3.547   3.557  10.988 -0.3311 -0.5766 -2.2483
 9249SOL     OW29187   1.965   1.986   8.708 -0.4610 -0.1135 -0.2106
 9249SOL    HW129188   2.049   1.964   8.667  0.0752  1.6230 -0.1212
 9249SOL    HW229189   1.964   1.933   8.788  1.2939  0.9381  0.5720
 9250SOL     OW29190   0.233   7.688   4.757  0.0139 -0.5582  0.6111
 9250SOL    HW129191   0.186   7.726   4.683  1.1938 -1.0052 -0.3995
 9250SOL    HW229192   0.203   7.597   4.760  4.0049 -2.3520 -3.0502
 9251SOL     OW29193   7.315   1.288   8.045  0.0724  0.2713  0.3023
 9251SOL    HW129194   7.367   1.240   8.110  0.6251  0.4925  0.0303
 9251SOL    HW229195   7.235   1.313   8.092  0.5132  0.5311  0.9378
 9252SOL     OW29196   6.810   0.792   7.896 -0.7043 -0.9531 -0.1497
 9252SOL    HW129197   6.790   0.885   7.909  0.0120 -0.7943 -0.1823
 9252SOL    HW229198   6.811   0.755   7.984  0.4850 -0.6243 -0.0161
 9253SOL     OW29199   4.615   7.405   6.692  0.1589  0.3561  0.1172
 9253SOL    HW129200   4.622   7.354   6.612  0.1666 -1.1439  1.0271
 9253SOL    HW229201   4.561   7.481   6.668 -0.2207 -0.2956 -1.1818
 9254SOL     OW29202   6.278   2.171   2.192  0.1768 -0.4946  0.0191
 9254SOL    HW129203   6.205   2.148   2.249  0.3632  0.7626  0.7935
 9254SOL    HW229204   6.252   2.139   2.105 -1.4591  0.2445  0.2079
 9255SOL     OW29205   2.373   3.771  10.196  0.0038 -0.2452 -0.4732
 9255SOL    HW129206   2.328   3.846  10.156  1.0130 -0.3288 -1.8203
 9255SOL    HW229207   2.334   3.695  10.154 -0.7819 -0.4856  0.6531
 9256SOL     OW29208   4.529   6.241   6.055  0.0867  0.3168 -0.5206
 9256SOL    HW129209   4.601   6.181   6.033 -0.1727 -0.7176  1.2961
 9256SOL    HW229210   4.571   6.327   6.059  0.6052  0.2197 -2.4427
 9257SOL     OW29211   4.083   0.438   2.480 -0.3175  0.4231 -0.0849
 9257SOL    HW129212   4.131   0.487   2.413 -1.0231  1.4606  0.1414
 9257SOL    HW229213   4.143   0.435   2.555 -0.0296  0.3863 -0.3129
 9258SOL     OW29214   3.885   6.551   8.213  0.3076  0.0546  0.1860
 9258SOL    HW129215   3.835   6.496   8.273 -0.8109  1.9817  1.1045
 9258SOL    HW229216   3.819   6.603   8.167  1.3245  0.6448 -0.6605
 9259SOL     OW29217   1.527   6.745  10.996 -0.7857 -0.1588  0.1771
 9259SOL    HW129218   1.505   6.809  10.928 -1.0673  0.7171  1.0621
 9259SOL    HW229219   1.591   6.790  11.052 -1.4949 -0.3755  1.2035
 9260SOL     OW29220   5.318   7.662  10.677  0.0107 -0.0847  0.2870
 9260SOL    HW129221   5.380   7.641  10.747 -1.3695  1.0155  1.9256
 9260SOL    HW229222   5.234   7.632  10.709 -0.6817  0.4916 -0.9004
 9261SOL     OW29223   6.557   6.950   5.393 -0.6611  0.6497  0.4088
 9261SOL    HW129224   6.493   6.922   5.458 -0.6823 -0.8898 -0.2324
 9261SOL    HW229225   6.641   6.915   5.425 -0.6237  0.1518 -0.2260
 9262SOL     OW29226   4.424   2.940  11.297  0.6109 -1.1527  0.0628
 9262SOL    HW129227   4.424   3.035  11.289 -0.8150 -1.2949 -2.4851
 9262SOL    HW229228   4.491   2.910  11.235  1.1122 -1.8572  0.9069
 9263SOL     OW29229   2.887   3.360   0.007  0.4322 -0.2164 -0.2674
 9263SOL    HW129230   2.871   3.448  -0.028 -1.3497 -1.0570 -1.7263
 9263SOL    HW229231   2.936   3.375   0.088  1.0272  2.0544 -0.9827
 9264SOL     OW29232   2.764   3.845   1.901  0.2192 -0.2879  0.1559
 9264SOL    HW129233   2.839   3.801   1.942 -0.8675 -3.2087 -0.7063
 9264SOL    HW229234   2.796   3.874   1.816  0.5446 -1.0184  0.0231
 9265SOL     OW29235   2.920   0.236   4.207  0.4994 -0.1552  0.0228
 9265SOL    HW129236   2.952   0.190   4.130 -0.2835 -1.0365  0.2061
 9265SOL    HW229237   2.882   0.317   4.173  1.5562  0.2061 -0.3409
 9266SOL     OW29238   3.996   1.538  11.789 -0.3332 -0.4757  0.3428
 9266SOL    HW129239   3.976   1.496  11.705  0.7658 -1.4648  0.5543
 9266SOL    HW229240   4.090   1.525  11.801 -0.2641  0.6631  1.1901
 9267SOL     OW29241   0.091   6.140   1.268 -0.0229 -0.0586  0.7403
 9267SOL    HW129242   0.113   6.222   1.224  0.4356 -0.0594  0.9656
 9267SOL    HW229243   0.126   6.072   1.211 -0.6873 -0.1126  0.3907
 9268SOL     OW29244   4.130   7.889   0.086  0.1580 -0.5113  0.7849
 9268SOL    HW129245   4.044   7.865   0.050 -0.9252  1.6457  1.7445
 9268SOL    HW229246   4.185   7.904   0.008 -0.6866 -0.7247  0.1267
 9269SOL     OW29247   3.831   3.045  11.387  0.3375 -0.0177  0.2629
 9269SOL    HW129248   3.913   3.093  11.374  0.6164 -0.2542  1.0556
 9269SOL    HW229249   3.855   2.974  11.447 -0.5172  0.0980  0.7549
 9270SOL     OW29250   2.033   2.108   6.729  0.3234 -0.3404  0.0289
 9270SOL    HW129251   1.984   2.042   6.778  1.6837 -1.1237  0.3909
 9270SOL    HW229252   2.023   2.083   6.637 -0.3449 -0.2113  0.0665
 9271SOL     OW29253   3.790   0.369   4.623  0.0860  0.0831  0.2346
 9271SOL    HW129254   3.709   0.329   4.590  1.4155 -0.4640 -2.7180
 9271SOL    HW229255   3.830   0.301   4.677 -0.6573 -0.2542  0.3720
 9272SOL     OW29256   0.219   2.997   1.232  0.1377  0.1737 -0.2154
 9272SOL    HW129257   0.125   3.008   1.217 -0.0199  0.1147  0.6836
 9272SOL    HW229258   0.224   2.928   1.298  0.6427  2.4949  2.3555
 9273SOL     OW29259   5.966   5.313  11.854  0.3066  0.2097 -0.0386
 9273SOL    HW129260   5.974   5.336  11.946  0.4846 -0.9453  0.2574
 9273SOL    HW229261   5.964   5.396  11.807  1.7951  0.7836  0.8808
 9274SOL     OW29262   4.440   6.713   1.362 -0.3102 -0.3668 -0.1596
 9274SOL    HW129263   4.394   6.781   1.412 -0.8830  0.1099 -1.2955
 9274SOL    HW229264   4.478   6.761   1.288  1.5743 -0.8414  0.4507
 9275SOL     OW29265   4.551   7.370   9.893  0.1921 -0.1992  0.4351
 9275SOL    HW129266   4.603   7.436   9.847  0.7821  0.6113  2.2118
 9275SOL    HW229267   4.592   7.286   9.870 -0.3850  0.0224 -1.5995
 9276SOL     OW29268   3.406   4.124   9.439  0.1192 -0.2300 -0.4445
 9276SOL    HW129269   3.363   4.046   9.473  1.0275 -2.2935 -3.6101
 9276SOL    HW229270   3.343   4.163   9.379 -0.0937  1.2131  0.6488
 9277SOL     OW29271   7.901   7.252   9.061 -0.0646 -0.7099  0.8940
 9277SOL    HW129272   7.849   7.303   9.122 -2.2468 -1.9908  0.2085
 9277SOL    HW229273   7.859   7.166   9.059 -0.1967 -0.7069 -2.4277
 9278SOL     OW29274   1.288   1.911   6.500  0.5658  0.2450  0.6257
 9278SOL    HW129275   1.324   1.997   6.523 -0.3506  0.8265 -0.0606
 9278SOL    HW229276   1.235   1.927   6.423  1.9015 -1.2908 -0.6815
 9279SOL     OW29277   3.186   3.063   0.681 -0.1262  0.1145  0.2679
 9279SOL    HW129278   3.217   3.069   0.771  1.3575 -0.6583 -0.1657
 9279SOL    HW229279   3.222   3.141   0.638  0.9179 -0.5741 -0.1367
 9280SOL     OW29280   1.889   3.690  10.566  0.3228  1.0021 -0.6011
 9280SOL    HW129281   1.953   3.707  10.636 -0.4123  0.4016  0.2455
 9280SOL    HW229282   1.862   3.599  10.580 -0.1133  0.9947 -1.4460
 9281SOL     OW29283   0.132   5.858   8.892  0.2941  0.1329  0.2168
 9281SOL    HW129284   0.048   5.851   8.846  0.7026  2.0388 -0.9314
 9281SOL    HW229285   0.120   5.807   8.972 -1.9487  0.3485  0.0858
 9282SOL     OW29286   5.002   7.772   0.791 -0.1018 -0.7327 -0.2567
 9282SOL    HW129287   5.039   7.857   0.767 -0.1031 -0.4307  0.7460
 9282SOL    HW229288   5.075   7.710   0.781 -0.0591 -0.5897 -0.8419
 9283SOL     OW29289   0.272   3.203   9.396 -0.2322  0.1290 -0.0941
 9283SOL    HW129290   0.225   3.285   9.413  1.9790  1.6353 -0.8391
 9283SOL    HW229291   0.363   3.224   9.415  0.4640 -2.0333 -0.8328
 9284SOL     OW29292   1.775   4.120   5.974  0.0904  0.1204 -0.3720
 9284SOL    HW129293   1.737   4.037   6.005 -3.6216  2.1257  1.0975
 9284SOL    HW229294   1.748   4.125   5.882 -0.7167  0.1639 -0.1474
 9285SOL     OW29295   5.801   7.445   0.442 -0.2963  0.2108 -0.2640
 9285SOL    HW129296   5.749   7.365   0.435 -0.5754  0.4287 -0.7225
 9285SOL    HW229297   5.736   7.515   0.451 -0.2844  0.8034 -3.4100
 9286SOL     OW29298   7.512   5.828   9.699 -0.1202  0.1912 -0.1607
 9286SOL    HW129299   7.554   5.861   9.779  0.3110 -0.8082  0.0497
 9286SOL    HW229300   7.431   5.788   9.730  0.9025 -1.8443  0.0834
 9287SOL     OW29301   5.423   2.163   4.135 -0.1113 -0.6653 -0.1267
 9287SOL    HW129302   5.386   2.075   4.138  0.4105 -0.8746  0.2883
 9287SOL    HW229303   5.409   2.198   4.223  1.7581 -1.2141  0.4412
 9288SOL     OW29304   7.216   7.295   9.634 -0.7789  0.0925 -0.1457
 9288SOL    HW129305   7.230   7.367   9.696 -0.2234 -0.4137  0.3272
 9288SOL    HW229306   7.292   7.238   9.645 -0.2775  0.3699 -1.8456
 9289SOL     OW29307   7.568   5.567   4.570  0.0411  0.6373 -0.9337
 9289SOL    HW129308   7.623   5.555   4.492 -0.9863  0.1669 -1.6163
 9289SOL    HW229309   7.630   5.582   4.641  0.9938  1.7906 -1.9516
 9290SOL     OW29310   0.064   2.010   3.207 -0.4906 -0.1680 -0.0675
 9290SOL    HW129311  -0.006   2.034   3.268 -0.4269 -2.2183  0.8824
 9290SOL    HW229312   0.035   1.928   3.168  0.5992 -0.1350 -0.9977
 9291SOL     OW29313   1.063   0.885  12.363  0.3019 -0.4442  0.4278
 9291SOL    HW129314   0.987   0.905  12.307 -1.0141 -0.6216  2.0826
 9291SOL    HW229315   1.092   0.970  12.396 -0.4373 -0.5352  1.3473
 9292SOL     OW29316   7.366   2.920   6.263 -0.3488  0.2980 -1.0124
 9292SOL    HW129317   7.281   2.961   6.249 -1.6008 -1.6610  0.3058
 9292SOL    HW229318   7.406   2.970   6.334 -1.5607 -0.2798  0.1272
 9293SOL     OW29319   0.098   7.220   5.063 -0.1491  0.0345  0.0966
 9293SOL    HW129320   0.046   7.144   5.036 -3.5141  1.0915  2.9971
 9293SOL    HW229321   0.174   7.182   5.108 -0.5345 -1.5805 -0.5324
 9294SOL     OW29322   0.285   6.160   8.453 -0.1717 -0.5583 -0.4078
 9294SOL    HW129323   0.196   6.181   8.426  0.1605 -0.0591 -1.1467
 9294SOL    HW229324   0.274   6.115   8.537 -1.1096 -0.4317 -0.4459
 9295SOL     OW29325   0.539   0.675  11.216  0.6241 -0.5077 -0.3596
 9295SOL    HW129326   0.588   0.713  11.289  1.5943 -0.0855 -1.1970
 9295SOL    HW229327   0.450   0.663  11.250  1.0833 -0.4447  0.9215
 9296SOL     OW29328   3.717   5.611   3.822 -0.0897 -0.2144 -0.1720
 9296SOL    HW129329   3.684   5.664   3.750 -0.5044  0.8485  0.7868
 9296SOL    HW229330   3.759   5.673   3.881  0.7260 -1.1381  0.2615
 9297SOL     OW29331   6.519   0.874   8.202 -0.1974 -0.7145 -0.6447
 9297SOL    HW129332   6.435   0.904   8.168  0.2421 -0.3116 -1.4140
 9297SOL    HW229333   6.544   0.801   8.144  1.5844  1.3442 -2.7171
 9298SOL     OW29334   1.854   7.746   6.302  0.1381 -0.0299  0.3486
 9298SOL    HW129335   1.763   7.750   6.270  0.3768 -2.1478 -0.7791
 9298SOL    HW229336   1.899   7.814   6.252 -0.9543  1.6991  1.5957
 9299SOL     OW29337   2.153   5.346  11.215  0.2228  0.2462  0.7422
 9299SOL    HW129338   2.059   5.339  11.198 -0.1315  1.4173  2.1180
 9299SOL    HW229339   2.175   5.437  11.196  0.7560  0.3855  1.9592
 9300SOL     OW29340   2.095   6.352   9.354  0.2783  0.0552  0.3394
 9300SOL    HW129341   2.049   6.406   9.290  0.4412  1.6264  1.4889
 9300SOL    HW229342   2.185   6.385   9.353  0.3270 -0.0174  1.2383
 9301SOL     OW29343   4.597   4.864   1.675  0.0711 -0.1099  0.3045
 9301SOL    HW129344   4.566   4.881   1.764  2.2719  1.1400  0.9036
 9301SOL    HW229345   4.660   4.934   1.657 -0.7895  0.0838 -2.5303
 9302SOL     OW29346   0.168   3.972  10.484  0.4350 -0.0370 -0.0476
 9302SOL    HW129347   0.184   3.957  10.391  0.3696  0.5492 -0.1569
 9302SOL    HW229348   0.102   4.041  10.487  0.0289 -0.4375  0.4338
 9303SOL     OW29349   2.002   1.388   0.345  0.3129 -0.0978  0.4101
 9303SOL    HW129350   1.912   1.421   0.345  1.1294  2.3160 -0.3303
 9303SOL    HW229351   2.006   1.328   0.270 -0.3482  0.7622 -0.3237
 9304SOL     OW29352   7.719   1.516   4.694 -0.2082  0.4198 -0.4136
 9304SOL    HW129353   7.671   1.434   4.709  2.8474 -1.7072 -1.2318
 9304SOL    HW229354   7.683   1.551   4.613 -2.4687  0.6509  0.6405
 9305SOL     OW29355   0.792   6.971   2.252  0.4180 -0.7344 -0.1138
 9305SOL    HW129356   0.844   6.894   2.230  1.4570  0.1065 -0.6797
 9305SOL    HW229357   0.755   6.952   2.338  0.4418 -1.9698 -0.3700
 9306SOL     OW29358   5.879   6.416   3.533  0.0286  0.4510  0.5093
 9306SOL    HW129359   5.796   6.447   3.569  0.3550  2.2853 -0.2090
 9306SOL    HW229360   5.945   6.471   3.575  0.6431  0.6961 -0.7256
 9307SOL     OW29361   5.460   5.537  11.250  0.4847 -0.0420 -0.7547
 9307SOL    HW129362   5.441   5.530  11.157  0.3475 -0.2576 -0.7100
 9307SOL    HW229363   5.448   5.449  11.284  1.3117 -0.1339 -0.6787
 9308SOL     OW29364   2.574   3.684   1.287  0.4752  0.1831 -0.6433
 9308SOL    HW129365   2.669   3.674   1.279  0.3130 -3.2887  0.2578
 9308SOL    HW229366   2.538   3.618   1.228 -1.4846  2.0653 -1.6954
 9309SOL     OW29367   2.744   3.212   4.037  0.1741  0.2520  0.3242
 9309SOL    HW129368   2.650   3.198   4.051  0.6677 -2.3882  1.6011
 9309SOL    HW229369   2.776   3.248   4.120  0.6714 -1.3872  0.8874
 9310SOL     OW29370   1.277   6.312   6.673  0.0644 -0.2109 -0.2337
 9310SOL    HW129371   1.279   6.407   6.689 -0.7243 -0.0999 -0.7499
 9310SOL    HW229372   1.186   6.287   6.687  0.0126 -0.6755 -1.2916
 9311SOL     OW29373   7.529   0.907   7.191  0.0662 -0.1483  0.3999
 9311SOL    HW129374   7.567   0.843   7.130  1.1371 -0.0700  0.9759
 9311SOL    HW229375   7.486   0.853   7.257 -2.3892 -0.2469 -1.1442
 9312SOL     OW29376   3.753   7.745   9.809  0.0833 -0.2233 -0.0503
 9312SOL    HW129377   3.721   7.795   9.734 -1.3899 -2.0416 -0.7408
 9312SOL    HW229378   3.839   7.782   9.828 -1.3755  3.3761  0.3575
 9313SOL     OW29379   1.214   3.270   8.645  0.6182 -0.0366  0.0896
 9313SOL    HW129380   1.254   3.192   8.683 -2.3015 -2.1180 -0.7670
 9313SOL    HW229381   1.267   3.288   8.567  1.4314 -1.1245  0.3655
 9314SOL     OW29382   2.604   4.514   3.127 -0.4354  0.3872 -0.1712
 9314SOL    HW129383   2.679   4.573   3.121  2.2453 -2.6988  0.0532
 9314SOL    HW229384   2.585   4.489   3.036  1.3300 -1.5764 -0.0742
 9315SOL     OW29385   2.161   4.164   3.056  0.4883 -0.0328  0.4256
 9315SOL    HW129386   2.172   4.070   3.038  0.9795 -0.0916  1.0106
 9315SOL    HW229387   2.228   4.207   3.004  1.1731 -0.1194  1.2121
 9316SOL     OW29388   5.011   6.967   5.773 -0.3071  0.0757 -0.0403
 9316SOL    HW129389   5.061   7.048   5.766 -3.1598  2.1500  1.4373
 9316SOL    HW229390   4.952   6.969   5.698 -0.9888 -0.1626  0.4793
 9317SOL     OW29391   7.804   0.387   1.060 -0.5666  0.1767 -0.0394
 9317SOL    HW129392   7.899   0.394   1.048 -0.0261 -1.0991  2.7923
 9317SOL    HW229393   7.779   0.313   1.004  0.2572 -0.0531 -0.1190
 9318SOL     OW29394   6.697   4.331   4.258  0.2097 -0.0430  0.6757
 9318SOL    HW129395   6.740   4.407   4.219  1.0318 -0.8124  0.0304
 9318SOL    HW229396   6.760   4.299   4.322 -0.4736  0.2792  1.5228
 9319SOL     OW29397   2.772   0.625  10.322 -0.0196  0.2554 -0.2383
 9319SOL    HW129398   2.738   0.544  10.359  1.7976 -0.8778 -0.9537
 9319SOL    HW229399   2.777   0.609  10.228  0.3256  1.2212 -0.3974
 9320SOL     OW29400   5.749   0.556  12.337  0.2191 -0.0192  0.5243
 9320SOL    HW129401   5.801   0.598  12.406  1.9575  0.4806 -0.9902
 9320SOL    HW229402   5.800   0.571  12.257 -0.3067 -2.9047 -0.4735
 9321SOL     OW29403   3.588   6.856   8.723  0.2836 -0.0896  0.0526
 9321SOL    HW129404   3.669   6.900   8.750  0.3755 -0.1781 -0.0752
 9321SOL    HW229405   3.520   6.922   8.736  0.3911  0.0206  0.0637
 9322SOL     OW29406   2.941   4.596   4.285  0.2065 -0.2969  0.2367
 9322SOL    HW129407   3.028   4.608   4.249  0.2256 -2.7402 -0.7067
 9322SOL    HW229408   2.952   4.531   4.354 -0.8739 -0.7128  0.0440
 9323SOL     OW29409   7.899   5.459   9.296 -0.3359 -0.0367  0.0276
 9323SOL    HW129410   7.890   5.528   9.230  0.9232 -0.0553 -0.1858
 9323SOL    HW229411   7.972   5.487   9.351 -1.5808  0.1516  1.6770
 9324SOL     OW29412   3.240   7.661   4.511  0.6495 -0.2371  0.4115
 9324SOL    HW129413   3.273   7.693   4.595 -0.1318  0.8996  0.3064
 9324SOL    HW229414   3.229   7.567   4.525  2.1703 -0.3585  1.0150
 9325SOL     OW29415   5.659   7.947   7.165  0.2449 -0.2178 -0.7431
 9325SOL    HW129416   5.714   8.023   7.187 -0.2258  0.0886 -0.6015
 9325SOL    HW229417   5.715   7.871   7.182  0.1425  0.0295  0.8401
 9326SOL     OW29418   1.524   7.614   8.477  0.3803 -0.6089 -0.1163
 9326SOL    HW129419   1.546   7.600   8.569  0.3788 -0.6314 -0.1196
 9326SOL    HW229420   1.600   7.659   8.441 -0.1699  0.6264  0.2173
 9327SOL     OW29421   5.299   4.969   0.417 -0.6502  0.5765  0.5976
 9327SOL    HW129422   5.239   5.020   0.363 -0.9569  0.1190  0.4999
 9327SOL    HW229423   5.340   5.033   0.474 -0.0143  1.1395 -0.4517
 9328SOL     OW29424   7.883   1.097   9.278  0.1218  0.1255 -0.3359
 9328SOL    HW129425   7.898   1.023   9.218  0.0403  1.4514 -2.0930
 9328SOL    HW229426   7.803   1.137   9.246  1.0233  1.9092 -0.4734
 9329SOL     OW29427   4.518   1.728   5.547 -0.1069  0.4319  0.3028
 9329SOL    HW129428   4.448   1.671   5.578 -1.2366  1.3073 -0.5308
 9329SOL    HW229429   4.473   1.806   5.515  1.3626  1.6312  1.0248
 9330SOL     OW29430   6.883   3.256   3.786  0.0141 -0.1159  0.2379
 9330SOL    HW129431   6.964   3.204   3.784 -0.3800 -0.7209 -1.3184
 9330SOL    HW229432   6.902   3.330   3.729 -0.1470  0.3640  0.8013
 9331SOL     OW29433   4.356   3.838   1.725 -0.3461  0.3334  0.1300
 9331SOL    HW129434   4.356   3.756   1.675 -0.1752  0.6076 -0.3288
 9331SOL    HW229435   4.352   3.906   1.658 -3.1776  0.7065  0.5587
 9332SOL     OW29436   0.228   6.914   6.447 -0.2296  0.2461  0.3781
 9332SOL    HW129437   0.246   6.824   6.476 -2.7329 -0.9201 -1.3314
 9332SOL    HW229438   0.277   6.923   6.365 -1.5918 -0.3897 -0.5529
 9333SOL     OW29439   6.375   5.311   1.836 -1.0812  0.0085  0.0525
 9333SOL    HW129440   6.295   5.295   1.888 -1.1484  1.9064  0.6116
 9333SOL    HW229441   6.348   5.294   1.746 -1.9124 -0.1032  0.3073
 9334SOL     OW29442   4.656   4.829   3.078 -0.1348 -0.4404  0.3233
 9334SOL    HW129443   4.673   4.759   3.140  2.0416 -0.7171 -0.4985
 9334SOL    HW229444   4.661   4.787   2.992  0.9273  0.6383 -0.1755
 9335SOL     OW29445   7.709   7.093   0.027  0.0198  0.6380  0.2195
 9335SOL    HW129446   7.800   7.078   0.001 -0.1553  0.5652 -0.3756
 9335SOL    HW229447   7.712   7.172   0.080  0.2857  1.2608 -0.7061
 9336SOL     OW29448   7.917   2.681   9.954 -0.2225  0.4624  0.1610
 9336SOL    HW129449   7.916   2.617   9.884 -2.0638  1.5760 -0.8879
 9336SOL    HW229450   7.841   2.737   9.938 -0.7879  0.7084  3.1004
 9337SOL     OW29451   6.397   4.294  11.098 -0.1730  0.4744 -0.3157
 9337SOL    HW129452   6.324   4.252  11.145  0.3196 -0.1680 -0.1158
 9337SOL    HW229453   6.468   4.298  11.163 -0.6874  3.0963  0.2024
 9338SOL     OW29454   5.260   7.504   8.591 -0.0918  0.0426  0.6175
 9338SOL    HW129455   5.300   7.578   8.636  0.1433 -0.4315  1.1970
 9338SOL    HW229456   5.334   7.456   8.553 -0.0066 -1.2478  2.3103
 9339SOL     OW29457   7.882   6.003   3.577 -0.3510 -0.0351 -0.4036
 9339SOL    HW129458   7.874   6.091   3.615 -0.5847 -0.3174  0.2247
 9339SOL    HW229459   7.946   5.959   3.633  1.2240  0.3135 -1.8400
 9340SOL     OW29460   1.798   6.796   6.522 -0.2308  0.0610 -0.5398
 9340SOL    HW129461   1.846   6.857   6.579 -0.1001  1.3754 -1.9829
 9340SOL    HW229462   1.736   6.852   6.475 -2.1288 -1.3651  0.1229
 9341SOL     OW29463   5.393   3.628   9.138  0.1143 -0.1057  0.0376
 9341SOL    HW129464   5.378   3.613   9.232 -1.3779  0.9914  0.0115
 9341SOL    HW229465   5.422   3.719   9.133 -0.7530  0.1485 -0.6334
 9342SOL     OW29466   1.140   5.642   3.573 -0.3145 -0.1526 -0.2520
 9342SOL    HW129467   1.222   5.605   3.543  0.1903  0.1067  0.7584
 9342SOL    HW229468   1.164   5.699   3.646 -1.6028 -1.9360  1.6781
 9343SOL     OW29469   2.755   0.774   0.106  1.0538 -0.7085 -0.1670
 9343SOL    HW129470   2.772   0.701   0.046 -0.7859 -1.4900  0.1887
 9343SOL    HW229471   2.711   0.733   0.181  0.1753  0.7360  0.1377
 9344SOL     OW29472   7.527   3.936  10.283 -0.2691 -0.1061 -0.6703
 9344SOL    HW129473   7.478   3.857  10.260 -0.5358  0.2409 -1.3202
 9344SOL    HW229474   7.567   3.916  10.368  0.8188 -1.4459 -1.4690
 9345SOL     OW29475   7.276   6.667   5.506 -0.1211 -0.6961 -0.6176
 9345SOL    HW129476   7.259   6.706   5.592 -2.0165 -1.4652 -0.5927
 9345SOL    HW229477   7.340   6.598   5.524  0.9130  0.3435 -0.1616
 9346SOL     OW29478   6.389   4.387  10.759  0.3724 -0.2124  0.0590
 9346SOL    HW129479   6.310   4.441  10.763 -0.0604 -0.6286 -1.8289
 9346SOL    HW229480   6.418   4.380  10.850 -1.9723 -0.3623  0.8564
 9347SOL     OW29481   6.689   0.069   6.136  0.4545  0.3320 -0.5712
 9347SOL    HW129482   6.737   0.152   6.136 -1.1943  1.3676  1.5556
 9347SOL    HW229483   6.721   0.023   6.058  2.8642  2.0959 -0.7349
 9348SOL     OW29484   2.265   2.677   3.886 -0.1743 -0.2946 -0.2193
 9348SOL    HW129485   2.284   2.770   3.899  1.1697 -0.6299  0.4675
 9348SOL    HW229486   2.299   2.635   3.966 -2.1047 -1.2161  0.1629
 9349SOL     OW29487   1.965   1.833   3.084 -0.0504 -0.0403 -0.3824
 9349SOL    HW129488   1.974   1.906   3.023 -0.3457  0.4705  0.1769
 9349SOL    HW229489   1.879   1.845   3.124  0.6166  0.3202  0.9979
 9350SOL     OW29490   2.931   1.668   9.519 -0.0212  0.3915  0.0842
 9350SOL    HW129491   2.993   1.635   9.454 -1.2943  0.0599 -1.0005
 9350SOL    HW229492   2.845   1.645   9.485 -0.7589  0.6195  1.6799
 9351SOL     OW29493   5.111   7.773   4.255  0.1121 -0.0420 -0.3645
 9351SOL    HW129494   5.196   7.808   4.280  0.5253  0.9212 -2.8756
 9351SOL    HW229495   5.064   7.848   4.218 -2.3855 -0.2295  2.0830
 9352SOL     OW29496   1.322   5.373   6.306 -0.1371 -0.4956  0.0888
 9352SOL    HW129497   1.243   5.349   6.353 -1.3104  1.0727 -0.9917
 9352SOL    HW229498   1.328   5.468   6.315  2.0313 -0.6281  0.7369
 9353SOL     OW29499   7.734   6.955  11.918  0.0823 -0.3393 -0.1889
 9353SOL    HW129500   7.653   7.001  11.897 -0.7882 -1.5285  0.4162
 9353SOL    HW229501   7.716   6.911  12.001  1.7377  0.2501  0.5362
 9354SOL     OW29502   4.604   6.341   4.129  0.1581  0.0772  0.3331
 9354SOL    HW129503   4.594   6.367   4.220  0.9977 -1.0597  0.7866
 9354SOL    HW229504   4.515   6.328   4.097 -0.1702  1.2541  0.7421
 9355SOL     OW29505   6.536   1.772  10.618 -0.5753 -0.5731 -0.2879
 9355SOL    HW129506   6.587   1.732  10.548 -0.5987 -0.5569 -0.3139
 9355SOL    HW229507   6.542   1.866  10.602 -1.0582 -0.5943 -0.5999
 9356SOL     OW29508   6.191   0.160   3.041 -0.2882 -0.0085 -0.5095
 9356SOL    HW129509   6.189   0.220   2.966  2.0191 -2.1565 -2.4980
 9356SOL    HW229510   6.239   0.083   3.008 -2.0363 -2.4607  2.2280
 9357SOL     OW29511   7.628   4.037   9.143  0.6224  0.2866 -0.0386
 9357SOL    HW129512   7.553   4.047   9.203 -1.1695 -1.4497 -1.8357
 9357SOL    HW229513   7.618   3.950   9.107  2.6629  0.6124 -1.5637
 9358SOL     OW29514   0.627   0.844   6.810  0.0381  0.1069 -0.5113
 9358SOL    HW129515   0.638   0.907   6.880 -1.1011  0.9705 -1.0906
 9358SOL    HW229516   0.712   0.843   6.765  0.9500 -0.8172  1.1118
 9359SOL     OW29517   7.854   0.856   5.307 -0.7254 -0.0044 -0.0600
 9359SOL    HW129518   7.854   0.933   5.363 -2.8828  0.1398 -0.2028
 9359SOL    HW229519   7.886   0.785   5.364 -2.0052  0.3233  1.0966
 9360SOL     OW29520   2.869   4.445   8.476  0.3807 -0.4245  0.2758
 9360SOL    HW129521   2.959   4.423   8.499  0.7887 -0.8979 -1.5762
 9360SOL    HW229522   2.874   4.470   8.383 -0.9365  2.3228  0.8429
 9361SOL     OW29523   0.135   4.425   2.977 -0.3596  0.1204  0.2522
 9361SOL    HW129524   0.156   4.511   3.013 -2.0631  0.0151  1.6122
 9361SOL    HW229525   0.110   4.443   2.886 -0.5367  1.0267  0.4689
 9362SOL     OW29526   5.040   0.127   1.746  0.1243  0.2345  0.5375
 9362SOL    HW129527   4.975   0.160   1.808 -1.8869 -1.3144 -0.6442
 9362SOL    HW229528   5.052   0.035   1.769  1.0310  0.1937 -0.0202
 9363SOL     OW29529   7.911   1.792   8.925  0.5207  0.0628 -0.3027
 9363SOL    HW129530   7.926   1.745   8.843 -1.7021 -0.8794 -0.2591
 9363SOL    HW229531   7.842   1.855   8.904  0.3888  0.2638  0.6716
 9364SOL     OW29532   2.504   4.703   4.254  0.1980  0.5499  0.0557
 9364SOL    HW129533   2.522   4.657   4.172 -0.7439  1.7091 -0.8348
 9364SOL    HW229534   2.436   4.650   4.297  0.2468  0.2820 -0.1944
 9365SOL     OW29535   4.476   5.590  10.449  0.0139 -0.0887 -0.1227
 9365SOL    HW129536   4.396   5.545  10.422 -0.9860  1.6206 -0.0762
 9365SOL    HW229537   4.533   5.519  10.479 -1.4972 -1.3353 -0.0604
 9366SOL     OW29538   7.700   5.028   6.968 -0.2177 -0.2031 -0.3881
 9366SOL    HW129539   7.677   4.986   6.885  1.8387  0.4647 -1.3881
 9366SOL    HW229540   7.769   5.091   6.944 -2.2815  2.9081  1.2020
 9367SOL     OW29541   5.106   4.128   1.691 -0.2871 -0.3186 -0.0957
 9367SOL    HW129542   5.179   4.189   1.685  0.2404 -0.7196  1.7462
 9367SOL    HW229543   5.062   4.136   1.606  1.0297  0.9900 -0.7106
 9368SOL     OW29544   6.358   0.966  11.588 -0.0603  0.8198  0.0804
 9368SOL    HW129545   6.332   1.030  11.654 -0.1565  2.2809 -1.2809
 9368SOL    HW229546   6.453   0.974  11.583 -0.1290  1.4313 -0.5822
 9369SOL     OW29547   6.082   7.703   3.590  0.0110  0.0487 -0.5626
 9369SOL    HW129548   6.159   7.759   3.602 -0.4359  0.2044  2.0374
 9369SOL    HW229549   6.116   7.614   3.594  0.0746  0.1138  0.8307
 9370SOL     OW29550   1.378   4.634   2.078 -0.0280  0.2193 -0.0615
 9370SOL    HW129551   1.361   4.671   2.164 -0.8878  1.0278 -0.5504
 9370SOL    HW229552   1.428   4.555   2.095 -0.2758  0.3082  1.1832
 9371SOL     OW29553   1.092   4.298  11.931  0.4204  0.0953 -0.0222
 9371SOL    HW129554   1.171   4.347  11.957  0.1539  0.6742 -0.2859
 9371SOL    HW229555   1.031   4.311  12.003  0.1911  0.5269 -0.2871
 9372SOL     OW29556   2.893   3.424   8.371  0.2639  0.1214  0.1743
 9372SOL    HW129557   2.945   3.478   8.431 -0.2860  1.8152 -0.8210
 9372SOL    HW229558   2.814   3.402   8.421  1.4401 -1.6297  1.3410
 9373SOL     OW29559   3.612   7.786   0.890 -0.2544  0.1551 -0.1629
 9373SOL    HW129560   3.590   7.877   0.871 -2.2170 -0.5877 -1.8345
 9373SOL    HW229561   3.564   7.736   0.825 -0.3896 -2.1818  1.6039
 9374SOL     OW29562   5.624   6.596   7.327 -0.2978 -0.1386  0.5780
 9374SOL    HW129563   5.653   6.515   7.369  0.2206 -0.9337 -1.2396
 9374SOL    HW229564   5.537   6.576   7.292 -0.9195  0.6592  1.5855
 9375SOL     OW29565   5.457   3.486   4.578  0.3673  0.2332  0.1200
 9375SOL    HW129566   5.449   3.391   4.566 -0.8330  0.5380 -2.0132
 9375SOL    HW229567   5.368   3.517   4.591  0.8266  1.0155  1.6671
 9376SOL     OW29568   2.966   0.610   8.421 -0.3308  0.0313  0.7131
 9376SOL    HW129569   2.873   0.620   8.403 -0.0789  1.4872  0.1380
 9376SOL    HW229570   2.998   0.551   8.352 -0.8718 -0.7670  1.1255
 9377SOL     OW29571   6.989   5.429   3.075 -0.1976  0.0694 -0.0606
 9377SOL    HW129572   6.905   5.472   3.057 -0.0156 -0.5630 -2.8788
 9377SOL    HW229573   7.052   5.501   3.080 -0.7438  0.4883  1.2375
 9378SOL     OW29574   7.104   7.133   6.737  0.1821 -0.1389  0.2590
 9378SOL    HW129575   7.170   7.107   6.673 -0.9967 -0.6435 -0.7768
 9378SOL    HW229576   7.043   7.059   6.741 -2.6538  1.8738 -1.9400
 9379SOL     OW29577   1.183   7.113   7.920  0.0336 -0.0274  0.4829
 9379SOL    HW129578   1.222   7.198   7.938  0.2888  0.1757 -0.9237
 9379SOL    HW229579   1.147   7.085   8.004 -1.4294  2.1678  0.6709
 9380SOL     OW29580   5.099   6.718   8.808 -0.3464  0.3048  0.3620
 9380SOL    HW129581   5.016   6.683   8.838  0.4859 -1.7099  0.4839
 9380SOL    HW229582   5.158   6.710   8.883 -0.0139  1.6831  0.2788
 9381SOL     OW29583   6.660   1.999   8.912  0.1435 -0.3035  0.0047
 9381SOL    HW129584   6.585   2.036   8.866  0.3475 -0.5833 -0.5659
 9381SOL    HW229585   6.691   1.928   8.855  3.1734  2.1591 -1.7440
 9382SOL     OW29586   3.178   2.065   1.182  0.1374  0.3866 -0.3164
 9382SOL    HW129587   3.221   2.053   1.267 -0.8105  1.0363  0.2705
 9382SOL    HW229588   3.142   2.153   1.185 -1.1508 -0.1045 -0.8262
 9383SOL     OW29589   5.105   0.366   7.015  0.0855  0.3603 -0.3240
 9383SOL    HW129590   5.190   0.365   7.059 -0.2203 -0.3074  0.2709
 9383SOL    HW229591   5.127   0.381   6.922  0.8644  0.0381 -0.2061
 9384SOL     OW29592   3.967   1.034   7.567 -0.4740 -0.0872 -0.4601
 9384SOL    HW129593   4.040   1.058   7.624  0.6164 -1.3871 -1.2293
 9384SOL    HW229594   3.970   1.098   7.496 -0.6091  0.3614 -0.0630
 9385SOL     OW29595   4.692   7.172  12.099 -0.1172 -0.5165  0.2492
 9385SOL    HW129596   4.767   7.118  12.073  2.0250  2.2073  0.3033
 9385SOL    HW229597   4.626   7.155  12.032  0.8089 -2.4108 -0.2580
 9386SOL     OW29598   3.095   2.521   5.059  0.1696  0.5238 -0.1934
 9386SOL    HW129599   3.090   2.522   4.964  0.7944 -0.5596 -0.2562
 9386SOL    HW229600   3.068   2.609   5.086 -1.7309  0.3217 -1.2663
 9387SOL     OW29601   2.725   1.685   6.986  0.1932 -0.3439  0.0419
 9387SOL    HW129602   2.799   1.684   7.047 -1.2582  0.0704  1.9067
 9387SOL    HW229603   2.731   1.770   6.942  0.5037 -0.0731  0.6012
 9388SOL     OW29604   5.694   7.327   4.198  0.4153 -0.7814  0.9428
 9388SOL    HW129605   5.731   7.374   4.124  2.1684  0.4343  2.4915
 9388SOL    HW229606   5.610   7.371   4.215  1.8135  1.6610  2.0818
 9389SOL     OW29607   5.310   0.328   8.062  0.0888 -0.2636  0.0064
 9389SOL    HW129608   5.370   0.361   8.129 -0.0629  1.3835 -0.6322
 9389SOL    HW229609   5.268   0.253   8.104  0.8650 -0.0114  1.3178
 9390SOL     OW29610   6.271   1.276   5.453  0.2054 -0.7725 -0.5983
 9390SOL    HW129611   6.309   1.226   5.526  2.1934 -0.5708 -1.4422
 9390SOL    HW229612   6.287   1.367   5.475 -0.3332 -0.6446 -0.7124
 9391SOL     OW29613   5.621   2.993   2.618  0.2738  0.2055  0.5866
 9391SOL    HW129614   5.531   3.024   2.615  0.0746 -0.3960 -1.0108
 9391SOL    HW229615   5.628   2.934   2.543  2.5080  1.7084 -0.5291
 9392SOL     OW29616   1.405   4.563   6.517  0.1070  0.2888  0.1042
 9392SOL    HW129617   1.350   4.591   6.590 -0.4143  2.2065 -0.9606
 9392SOL    HW229618   1.382   4.622   6.446  0.6465 -1.4740 -1.6265
 9393SOL     OW29619   4.316   4.015  11.630 -0.0106 -0.2414  0.0508
 9393SOL    HW129620   4.359   4.006  11.546  0.1684  1.4001 -0.0650
 9393SOL    HW229621   4.233   3.968  11.620 -0.1481  0.2306 -1.1668
 9394SOL     OW29622   0.334   0.441  10.580 -0.0998  0.1520 -0.2089
 9394SOL    HW129623   0.412   0.394  10.612  0.0613  2.0025  2.4613
 9394SOL    HW229624   0.261   0.383  10.601  0.3568 -0.4716 -0.3104
 9395SOL     OW29625   0.291   6.543  11.235  0.4337  0.1074  0.2593
 9395SOL    HW129626   0.369   6.579  11.192 -0.5764  0.3696 -1.4241
 9395SOL    HW229627   0.223   6.545  11.168 -1.1195  0.1132  1.7623
 9396SOL     OW29628   4.755   7.118   6.198  0.7143 -0.2991  0.4093
 9396SOL    HW129629   4.776   7.068   6.119  0.1356 -1.2345  0.8289
 9396SOL    HW229630   4.694   7.062   6.245 -1.6115  1.6653 -0.0793
 9397SOL     OW29631   3.442   2.499   5.078 -0.3930  0.0913  0.0340
 9397SOL    HW129632   3.439   2.529   5.169 -1.5781 -2.0047  0.7674
 9397SOL    HW229633   3.446   2.403   5.085 -2.7221 -0.2549 -2.1024
 9398SOL     OW29634   3.004   1.144   7.757 -0.1021 -0.1798  0.8914
 9398SOL    HW129635   2.968   1.060   7.728  0.0623 -0.7715  2.3291
 9398SOL    HW229636   3.028   1.188   7.676 -0.6271 -1.3219  0.0788
 9399SOL     OW29637   2.231   5.453   5.556  0.0214  0.9043  0.4484
 9399SOL    HW129638   2.317   5.442   5.595 -0.4500  1.9090  1.8774
 9399SOL    HW229639   2.194   5.364   5.555  0.4828  0.6891  1.2839
 9400SOL     OW29640   5.589   4.507  12.189 -0.3151  0.2056  0.2890
 9400SOL    HW129641   5.554   4.585  12.232  0.1531 -0.0220  1.1097
 9400SOL    HW229642   5.554   4.433  12.240  0.4732 -0.0609  0.4635
 9401SOL     OW29643   7.343   4.216   0.857 -0.4061  0.5820  0.0938
 9401SOL    HW129644   7.252   4.186   0.848 -0.5402  1.5065 -2.3023
 9401SOL    HW229645   7.341   4.307   0.826  1.0538  1.1739  1.6191
 9402SOL     OW29646   0.692   5.066   7.122  0.0920  0.6600 -0.6971
 9402SOL    HW129647   0.750   5.133   7.158  0.4049 -0.0739  0.2075
 9402SOL    HW229648   0.707   4.989   7.177  1.6690 -1.0165 -3.2594
 9403SOL     OW29649   2.727   4.088   7.537  0.4178  0.6061 -0.7213
 9403SOL    HW129650   2.813   4.072   7.498  0.5217  0.4915 -0.4536
 9403SOL    HW229651   2.713   4.182   7.526  1.0647  0.8259  0.1867
 9404SOL     OW29652   1.167   7.037   7.378 -0.2351  0.0187 -0.3293
 9404SOL    HW129653   1.175   7.014   7.471 -0.2756  0.3972 -0.2285
 9404SOL    HW229654   1.131   6.959   7.337  0.5547 -0.4442 -0.1688
 9405SOL     OW29655   7.428   1.960   9.236  0.3333 -0.8496 -0.1589
 9405SOL    HW129656   7.500   2.023   9.244  0.1319 -0.5935 -0.3308
 9405SOL    HW229657   7.358   1.997   9.290 -0.2189 -0.2911 -1.2204
 9406SOL     OW29658   1.385   3.568   1.440 -0.1821  0.0328 -0.3638
 9406SOL    HW129659   1.452   3.621   1.483 -0.6490  0.4745 -0.1667
 9406SOL    HW229660   1.305   3.585   1.491 -0.3497 -0.8152 -0.3325
 9407SOL     OW29661   7.564   6.658   9.801  0.3778  0.1324  0.1896
 9407SOL    HW129662   7.497   6.615   9.749 -1.0690 -1.1149  2.8930
 9407SOL    HW229663   7.627   6.589   9.822  0.6149  0.4670  0.6050
 9408SOL     OW29664   2.234   1.238   0.762  0.4739 -0.3232 -0.0843
 9408SOL    HW129665   2.257   1.205   0.849  0.0946  1.3154  0.6804
 9408SOL    HW229666   2.302   1.302   0.742 -0.9072  1.3127  0.2498
 9409SOL     OW29667   0.210   0.234   4.142 -0.1895 -0.0506 -0.3458
 9409SOL    HW129668   0.137   0.237   4.204 -0.2820 -1.4643 -0.3526
 9409SOL    HW229669   0.268   0.305   4.169  0.0448 -0.9384  1.7153
 9410SOL     OW29670   0.439   2.221   0.958 -0.3571 -0.3334  0.6735
 9410SOL    HW129671   0.429   2.250   1.048 -2.1139  1.6159 -0.0879
 9410SOL    HW229672   0.468   2.299   0.910  1.1883 -1.4827 -0.3992
 9411SOL     OW29673   0.301   1.743   0.232 -0.1097 -0.0987 -0.6165
 9411SOL    HW129674   0.363   1.699   0.174  0.2027  0.8215 -1.0156
 9411SOL    HW229675   0.216   1.731   0.191 -0.4029 -2.2926  0.4870
 9412SOL     OW29676   0.996   3.004  11.952  0.6989 -0.1366 -0.1392
 9412SOL    HW129677   0.979   3.096  11.974 -0.0717 -0.5242  1.0020
 9412SOL    HW229678   0.919   2.976  11.903 -0.1362 -0.7439  1.4235
 9413SOL     OW29679   3.541   0.417   4.083  0.4185  0.3792  0.4486
 9413SOL    HW129680   3.589   0.483   4.133  2.3912 -0.7917  0.2320
 9413SOL    HW229681   3.554   0.336   4.132 -0.0349 -0.2505 -0.4371
 9414SOL     OW29682   7.153   0.871   5.775  0.0348  0.4350 -0.0301
 9414SOL    HW129683   7.162   0.776   5.763  1.1925  0.3186  1.3821
 9414SOL    HW229684   7.086   0.879   5.843  1.1079  0.5072  1.0614
 9415SOL     OW29685   1.070   2.184  12.051 -1.4168  0.0620  0.4450
 9415SOL    HW129686   1.146   2.240  12.038  1.3781 -3.2690  0.9066
 9415SOL    HW229687   1.030   2.215  12.132  0.7112  0.6883  1.3089
 9416SOL     OW29688   0.041   5.061  11.080 -0.0801  0.2152 -0.3474
 9416SOL    HW129689   0.001   5.119  11.144 -0.7926 -1.5617  0.8777
 9416SOL    HW229690  -0.032   5.026  11.029  0.2194 -0.4653 -0.3252
 9417SOL     OW29691   1.545   2.050   2.336  0.1547 -0.1170  0.1000
 9417SOL    HW129692   1.562   2.140   2.308 -0.3413 -0.4729 -1.4262
 9417SOL    HW229693   1.464   2.056   2.387 -0.0697  0.2536 -0.2910
 9418SOL     OW29694   4.233   4.721   2.692 -0.3365 -0.3948  0.4175
 9418SOL    HW129695   4.281   4.776   2.630 -1.8524 -0.1679 -0.6150
 9418SOL    HW229696   4.301   4.678   2.744  1.0122 -0.6090 -1.4238
 9419SOL     OW29697   5.407   3.852   2.859 -0.8005 -0.2830 -0.1444
 9419SOL    HW129698   5.461   3.841   2.936 -1.0381  0.2146  0.0968
 9419SOL    HW229699   5.320   3.822   2.886 -0.8017 -0.4425 -0.3245
 9420SOL     OW29700   7.797   6.659   6.628 -0.7178  0.2483 -0.0442
 9420SOL    HW129701   7.847   6.662   6.546 -1.2057  2.8009 -0.3297
 9420SOL    HW229702   7.864   6.646   6.696 -0.1647 -0.5064 -0.7106
 9421SOL     OW29703   3.165   3.518   2.801 -0.3767  0.4366 -0.0160
 9421SOL    HW129704   3.203   3.605   2.795  0.4855  0.0545 -0.3480
 9421SOL    HW229705   3.113   3.519   2.881 -0.2508  1.2051  0.0570
 9422SOL     OW29706   2.038   6.769   3.160 -0.0600  0.2601 -0.2815
 9422SOL    HW129707   2.086   6.771   3.077  0.5745  1.5914  0.0973
 9422SOL    HW229708   1.951   6.801   3.138 -0.9425 -2.3561 -1.0122
 9423SOL     OW29709   7.564   1.609   2.458  0.0207  0.0596 -0.0863
 9423SOL    HW129710   7.632   1.600   2.392 -0.3423 -0.4709 -0.3958
 9423SOL    HW229711   7.599   1.566   2.536  0.2161  0.1788 -0.1090
 9424SOL     OW29712   4.341   0.381  10.483 -0.2437  0.2022 -0.3382
 9424SOL    HW129713   4.391   0.301  10.469  1.7890  1.3212  0.2095
 9424SOL    HW229714   4.323   0.413  10.394 -1.0676 -0.8152 -0.5616
 9425SOL     OW29715   6.620   6.757   2.347 -0.2979  0.1308 -0.9079
 9425SOL    HW129716   6.599   6.750   2.254 -1.8831  1.5837 -0.7143
 9425SOL    HW229717   6.535   6.763   2.391  0.4147 -0.7315  0.6701
 9426SOL     OW29718   1.738   7.630  10.553 -0.1722 -0.0211 -0.0135
 9426SOL    HW129719   1.790   7.649  10.475 -0.4154 -1.1362 -0.4599
 9426SOL    HW229720   1.671   7.569  10.523  0.7961 -1.8924  1.4194
 9427SOL     OW29721   1.462   0.807   2.085  0.5205 -0.4654  0.0994
 9427SOL    HW129722   1.476   0.901   2.096 -0.2916 -0.4454  1.0507
 9427SOL    HW229723   1.546   0.767   2.108  1.2276  0.0720 -1.3990
 9428SOL     OW29724   5.703   6.312   7.592  0.0856  0.0855 -0.3084
 9428SOL    HW129725   5.758   6.342   7.520 -2.5087  2.8941 -1.3518
 9428SOL    HW229726   5.630   6.267   7.549 -0.7657  0.4905  0.6671
 9429SOL     OW29727   6.070   5.965  10.931  0.0378  0.3713  0.4626
 9429SOL    HW129728   5.999   6.028  10.942 -0.5888  0.2950 -2.5063
 9429SOL    HW229729   6.064   5.908  11.008 -1.5721  1.8061  1.4613
 9430SOL     OW29730   6.488   1.249   6.271 -0.3593  0.2199  0.3102
 9430SOL    HW129731   6.536   1.200   6.205  1.2278 -0.5046  1.9042
 9430SOL    HW229732   6.557   1.288   6.326 -1.5965  0.5892  1.6714
 9431SOL     OW29733   4.511   2.829   5.740 -0.2609 -0.5956  0.1758
 9431SOL    HW129734   4.474   2.847   5.827 -0.0659 -1.2388  0.3967
 9431SOL    HW229735   4.473   2.897   5.684  0.9787  0.9340  1.0948
 9432SOL     OW29736   1.648   4.626   5.696  0.3012  0.4611  0.2260
 9432SOL    HW129737   1.617   4.643   5.785 -1.0118  1.0419 -0.3105
 9432SOL    HW229738   1.636   4.532   5.683  0.4618  0.3818  0.6510
 9433SOL     OW29739   1.376   7.815   8.950 -0.1847 -0.0292  0.0741
 9433SOL    HW129740   1.427   7.778   8.878  1.0603 -2.4542  2.0283
 9433SOL    HW229741   1.442   7.836   9.016 -1.5169 -1.1835  1.8449
 9434SOL     OW29742   2.440   3.091   5.182 -0.0153 -0.0397  0.7698
 9434SOL    HW129743   2.409   3.153   5.116 -2.6689 -0.6365  1.3132
 9434SOL    HW229744   2.417   3.131   5.265 -1.1764 -1.3719  1.1438
 9435SOL     OW29745   2.862   6.794   7.833 -0.5640 -0.1559 -0.2019
 9435SOL    HW129746   2.916   6.834   7.901 -2.3809 -0.5521  1.5850
 9435SOL    HW229747   2.792   6.858   7.817 -0.3914 -0.2438 -1.4576
 9436SOL     OW29748   5.478   5.522   9.309 -0.4589  0.2013  0.5089
 9436SOL    HW129749   5.509   5.566   9.230 -0.9546  0.8012  0.6407
 9436SOL    HW229750   5.521   5.567   9.381 -0.4582  0.0360  0.6127
 9437SOL     OW29751   4.641   2.305  10.209 -0.5435 -0.4087 -0.0583
 9437SOL    HW129752   4.646   2.400  10.221 -0.2848 -0.6130  1.8491
 9437SOL    HW229753   4.557   2.281  10.247 -0.5605 -0.9663 -0.4428
 9438SOL     OW29754   2.566   0.056   8.544  0.0488 -0.4211 -0.2373
 9438SOL    HW129755   2.496   0.077   8.606  1.3041 -0.2665  1.1654
 9438SOL    HW229756   2.599   0.141   8.515 -0.6464 -0.4887 -1.2923
 9439SOL     OW29757   0.184   4.087   9.996  0.1098  0.5858  0.0865
 9439SOL    HW129758   0.154   4.041  10.075  3.0190  0.4592  1.2318
 9439SOL    HW229759   0.266   4.043   9.972 -0.5316  0.8045 -2.9054
 9440SOL     OW29760   1.533   3.621   5.691 -0.6000  0.1197  0.6353
 9440SOL    HW129761   1.442   3.647   5.702 -0.3618  0.9627  0.6586
 9440SOL    HW229762   1.584   3.696   5.722  0.1148 -0.6055  1.3060
 9441SOL     OW29763   4.431   6.743   7.609  0.2268  0.0196 -0.0203
 9441SOL    HW129764   4.393   6.736   7.696 -0.1136 -0.7724 -0.2267
 9441SOL    HW229765   4.496   6.673   7.605 -1.8102 -1.9560 -1.4111
 9442SOL     OW29766   3.561   3.077  11.560  0.1352 -0.0851 -0.5582
 9442SOL    HW129767   3.518   2.992  11.548 -0.0554  0.1144 -1.3813
 9442SOL    HW229768   3.646   3.065  11.517  0.7301 -0.3341  0.6592
 9443SOL     OW29769   2.030   6.017   6.952 -0.1554  1.0387 -0.0281
 9443SOL    HW129770   1.990   6.001   7.037  0.7621  0.9651  0.4072
 9443SOL    HW229771   2.064   6.106   6.957 -0.8133  1.3336 -0.6197
 9444SOL     OW29772   0.625   1.649   9.793  0.3502  0.1768  0.0000
 9444SOL    HW129773   0.655   1.598   9.717 -0.1804  0.0445 -0.1230
 9444SOL    HW229774   0.689   1.629   9.861 -0.3925 -1.4536  0.2717
 9445SOL     OW29775   0.711   7.666  12.342 -0.6690  0.4367  0.2014
 9445SOL    HW129776   0.733   7.584  12.384 -1.6676 -0.1807 -0.4296
 9445SOL    HW229777   0.752   7.662  12.256  1.5620  1.7944  1.1260
 9446SOL     OW29778   3.553   1.795   3.635  0.1057 -0.4565 -0.0155
 9446SOL    HW129779   3.509   1.876   3.608  3.4328  1.5240 -0.0482
 9446SOL    HW229780   3.599   1.765   3.557  1.9451 -0.1688  0.8914
 9447SOL     OW29781   1.031   3.310   9.563  0.1380  0.2100  0.5130
 9447SOL    HW129782   1.021   3.235   9.622  0.0332  0.2338  0.5256
 9447SOL    HW229783   0.991   3.383   9.610  0.9053  0.4431  0.8224
 9448SOL     OW29784   1.088   5.892   7.709 -0.1836 -0.0411  0.2317
 9448SOL    HW129785   1.049   5.805   7.698 -0.1127 -0.2335  1.3340
 9448SOL    HW229786   1.182   5.877   7.705 -0.1503  0.5024 -2.9768
 9449SOL     OW29787   5.471   5.237   1.312  0.3809 -0.3444  0.3248
 9449SOL    HW129788   5.475   5.173   1.384 -0.9564  0.3368  1.0354
 9449SOL    HW229789   5.510   5.316   1.349 -0.1548 -0.0416  0.2390
 9450SOL     OW29790   4.449   4.522  12.077 -0.2488 -0.8803 -0.3192
 9450SOL    HW129791   4.515   4.535  12.009 -0.9593  0.0429 -0.8469
 9450SOL    HW229792   4.368   4.558  12.040 -1.1970 -2.4830  0.0973
 9451SOL     OW29793   6.695   7.627   9.780  0.3753 -0.5427  0.3154
 9451SOL    HW129794   6.719   7.699   9.838 -0.2514 -0.1537  0.1002
 9451SOL    HW229795   6.601   7.615   9.794  0.3856 -1.0080  0.0018
 9452SOL     OW29796   1.541   2.862   9.149  0.1691  0.0351  0.7410
 9452SOL    HW129797   1.584   2.777   9.151  2.4248  1.1045  0.9023
 9452SOL    HW229798   1.464   2.852   9.205 -0.4526 -2.2673 -0.4053
 9453SOL     OW29799   5.394   3.184   1.084 -0.0639 -0.0206 -0.5176
 9453SOL    HW129800   5.320   3.170   1.026  0.6092  0.4127 -1.4970
 9453SOL    HW229801   5.427   3.096   1.103 -0.0579 -0.1424 -1.0937
 9454SOL     OW29802   3.423   5.839   9.171  0.6038  0.0938 -0.5979
 9454SOL    HW129803   3.382   5.801   9.094 -0.4148 -0.2356  0.0816
 9454SOL    HW229804   3.353   5.891   9.212  0.8752 -0.4060  0.5347
 9455SOL     OW29805   2.396   4.518   1.491 -0.4941 -0.4030  0.0127
 9455SOL    HW129806   2.441   4.567   1.422 -1.7783 -0.3883 -0.8459
 9455SOL    HW229807   2.311   4.495   1.453 -0.5865 -1.8530  0.9927
 9456SOL     OW29808   6.789   6.945  12.016 -0.0952 -0.5370  0.0582
 9456SOL    HW129809   6.814   7.023  11.966  0.6608 -1.3566 -0.8648
 9456SOL    HW229810   6.858   6.935  12.081  0.2433 -0.9018 -0.3538
 9457SOL     OW29811   7.898   6.614  12.034  0.3752  0.1859 -0.1162
 9457SOL    HW129812   7.960   6.681  12.062  1.4210 -0.0544 -1.7318
 9457SOL    HW229813   7.840   6.659  11.973 -3.0905  1.1963  3.4905
 9458SOL     OW29814   0.489   0.700   9.847  0.1870 -0.2654 -0.7850
 9458SOL    HW129815   0.472   0.732   9.935 -0.8151 -0.6432 -0.8306
 9458SOL    HW229816   0.584   0.705   9.838  0.4427 -1.4062  0.7780
 9459SOL     OW29817   5.097   7.732   9.110 -0.2060  0.4952 -0.7780
 9459SOL    HW129818   5.180   7.772   9.134 -0.4013  0.6337 -0.3108
 9459SOL    HW229819   5.033   7.774   9.167 -0.4389 -0.3628 -0.3877
 9460SOL     OW29820   6.513   6.659   7.835 -0.8178  0.0768  0.1165
 9460SOL    HW129821   6.559   6.725   7.888  2.7939 -1.9777 -0.1531
 9460SOL    HW229822   6.441   6.630   7.891  1.3281 -0.2118  2.9867
 9461SOL     OW29823   6.967   4.214   5.006  0.3891  0.2975  0.0584
 9461SOL    HW129824   7.002   4.126   5.021 -1.5416 -0.8997 -1.8214
 9461SOL    HW229825   6.995   4.236   4.917 -0.3082  0.9825 -0.0009
 9462SOL     OW29826   5.443   1.894  10.437  0.1743  0.0876 -0.0827
 9462SOL    HW129827   5.357   1.906  10.397 -0.0048 -0.3565  0.1553
 9462SOL    HW229828   5.494   1.847  10.372 -0.5513 -1.9016  0.7003
 9463SOL     OW29829   2.923   7.900  10.626  0.3528  1.2892  0.8207
 9463SOL    HW129830   2.829   7.898  10.646 -0.6751  0.5387 -3.1198
 9463SOL    HW229831   2.938   7.988  10.591  0.9003  1.1383  0.6634
 9464SOL     OW29832   0.302   5.100   5.628 -0.4725  0.0944 -0.5354
 9464SOL    HW129833   0.369   5.058   5.574 -1.2677 -0.2174 -1.3061
 9464SOL    HW229834   0.294   5.188   5.594 -0.2586  0.2232 -0.2570
 9465SOL     OW29835   5.868   0.212  11.992 -0.0067 -0.0488 -0.0482
 9465SOL    HW129836   5.874   0.297  11.949 -0.5124  0.2820  0.5208
 9465SOL    HW229837   5.802   0.165  11.942 -0.7026  0.3898  0.4471
 9466SOL     OW29838   5.859   7.826   9.189 -0.0010  0.2716  0.0551
 9466SOL    HW129839   5.803   7.751   9.208 -0.0534  0.0609 -0.8838
 9466SOL    HW229840   5.938   7.789   9.152 -0.1971  0.6849 -0.8148
 9467SOL     OW29841   0.042   7.868  11.439  0.3945 -1.0576 -0.6058
 9467SOL    HW129842   0.095   7.944  11.414 -0.0919 -0.4033  0.3030
 9467SOL    HW229843   0.077   7.796  11.386  2.1912 -0.6501 -0.0404
 9468SOL     OW29844   1.632   0.111   7.344 -0.5757  0.4203 -0.1001
 9468SOL    HW129845   1.575   0.070   7.280 -1.0240 -1.4973  1.4377
 9468SOL    HW229846   1.719   0.109   7.303 -0.3600 -3.1326  0.2631
 9469SOL     OW29847   1.065   0.707   7.403  0.1524  0.0121  0.2534
 9469SOL    HW129848   1.079   0.630   7.348 -0.4176  2.1451 -3.2147
 9469SOL    HW229849   0.996   0.682   7.463 -0.5843 -1.9575 -1.3193
 9470SOL     OW29850   7.727   1.795   6.933 -0.2346 -0.2552  0.9904
 9470SOL    HW129851   7.770   1.733   6.991 -0.3232 -1.0905  0.2007
 9470SOL    HW229852   7.638   1.803   6.967 -0.3790 -0.9808  0.7997
 9471SOL     OW29853   3.735   3.080   7.873  0.3917  0.0812 -0.1493
 9471SOL    HW129854   3.681   3.153   7.905  1.9865  1.1509  0.2170
 9471SOL    HW229855   3.703   3.004   7.920 -0.3724  0.8037  0.5321
 9472SOL     OW29856   4.078   3.845  11.167  0.4188  0.0508 -0.2330
 9472SOL    HW129857   4.154   3.888  11.205 -0.2617  0.3168  0.9068
 9472SOL    HW229858   4.054   3.900  11.092  0.7578  0.5237 -0.0002
 9473SOL     OW29859   6.836   2.621   7.734  0.5524 -0.3183 -0.6021
 9473SOL    HW129860   6.912   2.570   7.704  0.2002 -0.8913 -0.5172
 9473SOL    HW229861   6.830   2.602   7.827  0.8558  0.4540 -0.4121
 9474SOL     OW29862   3.915   1.793   0.259 -0.0067  0.3764 -0.3706
 9474SOL    HW129863   3.868   1.822   0.337  0.4557  1.8839 -0.6250
 9474SOL    HW229864   3.861   1.723   0.222 -0.8918  0.5544  0.5716
 9475SOL     OW29865   5.758   6.919  11.374 -0.1117 -0.4179 -0.0080
 9475SOL    HW129866   5.825   6.973  11.417 -0.2070 -0.8207  0.6650
 9475SOL    HW229867   5.799   6.890  11.293  0.3101 -0.1690  0.1117
 9476SOL     OW29868   5.218   7.507   6.471  0.4069 -0.3086 -0.2658
 9476SOL    HW129869   5.154   7.511   6.542  1.4009  0.6494  0.6110
 9476SOL    HW229870   5.202   7.423   6.429 -0.8036 -0.4982  0.5168
 9477SOL     OW29871   1.614   4.497   8.131  0.1674 -0.0506 -0.2219
 9477SOL    HW129872   1.560   4.471   8.057 -0.2312  0.8801 -0.2778
 9477SOL    HW229873   1.556   4.487   8.207 -0.1802  1.1870 -0.3090
 9478SOL     OW29874   5.107   1.022  10.336 -0.2527  0.6298 -0.5376
 9478SOL    HW129875   5.120   0.974  10.255  0.1207 -1.2473  0.5721
 9478SOL    HW229876   5.014   1.045  10.336 -0.4742 -0.2289 -1.0420
 9479SOL     OW29877   2.405   4.430  11.006 -0.0023 -0.1935 -0.1383
 9479SOL    HW129878   2.416   4.520  11.038  3.0793  0.0964 -1.6528
 9479SOL    HW229879   2.346   4.439  10.931  0.3901  0.6074 -0.3619
 9480SOL     OW29880   7.834   7.525   6.977 -0.0807 -0.7828  0.3481
 9480SOL    HW129881   7.740   7.535   6.966 -0.2159 -1.4921  0.8048
 9480SOL    HW229882   7.870   7.533   6.889 -0.4957  0.1698  0.2523
 9481SOL     OW29883   2.007   1.800   6.629  0.2490 -0.3398  0.4862
 9481SOL    HW129884   2.030   1.881   6.583 -0.1575  0.4760  1.6861
 9481SOL    HW229885   2.045   1.731   6.575 -0.3947  0.5586 -1.2105
 9482SOL     OW29886   5.453   1.182  10.207  0.0777 -0.0782 -0.1806
 9482SOL    HW129887   5.460   1.097  10.251  0.4677  0.3495  0.6296
 9482SOL    HW229888   5.378   1.173  10.149 -0.0673 -0.8829  0.1086
 9483SOL     OW29889   7.652   3.172   3.505 -0.6868  0.2502 -0.3368
 9483SOL    HW129890   7.645   3.178   3.601  0.0306 -0.7352 -0.2170
 9483SOL    HW229891   7.561   3.182   3.475 -0.8909  0.8562  0.4129
 9484SOL     OW29892   6.387   0.037   4.144 -0.7182  0.1193 -0.4896
 9484SOL    HW129893   6.331   0.115   4.141 -0.1823  0.5129 -0.3288
 9484SOL    HW229894   6.442   0.044   4.066 -1.4167 -0.6759 -1.0739
 9485SOL     OW29895   7.864   2.997   4.705  0.5232 -0.1021 -0.6008
 9485SOL    HW129896   7.938   2.937   4.710  1.3553  0.8581 -1.0007
 9485SOL    HW229897   7.869   3.035   4.618 -0.3573  0.0977 -0.5775
 9486SOL     OW29898   0.420   2.047   5.560 -0.1174  0.1002  0.3466
 9486SOL    HW129899   0.453   2.012   5.643  0.2711  0.3377  0.2977
 9486SOL    HW229900   0.488   2.109   5.532  0.0788 -0.4744 -0.4796
 9487SOL     OW29901   5.403   4.559  10.234 -0.4884  0.2212  0.7967
 9487SOL    HW129902   5.361   4.573  10.150  2.3585 -1.0625 -0.9744
 9487SOL    HW229903   5.363   4.479  10.268 -1.9882  1.0084  0.9799
 9488SOL     OW29904   5.165   3.494   4.816  0.1731  0.0176  0.0695
 9488SOL    HW129905   5.164   3.506   4.721  0.0838  1.1778  0.2070
 9488SOL    HW229906   5.073   3.495   4.841  0.2255  0.4432  0.2510
 9489SOL     OW29907   3.847   2.614   0.257  0.4377  0.2154 -0.6034
 9489SOL    HW129908   3.910   2.653   0.197  0.3151  3.1514  0.9911
 9489SOL    HW229909   3.792   2.687   0.285 -1.5743 -1.6464  0.6009
 9490SOL     OW29910   4.252   7.559  11.679  0.3441  0.7814  0.0015
 9490SOL    HW129911   4.270   7.640  11.727 -0.5443  1.3884 -0.6499
 9490SOL    HW229912   4.288   7.575  11.591 -1.5098  1.2720 -0.7258
 9491SOL     OW29913   2.152   2.096   1.541 -0.0795  0.3718  0.2631
 9491SOL    HW129914   2.061   2.076   1.564 -0.0241  1.9649  2.0530
 9491SOL    HW229915   2.145   2.156   1.466 -0.6043  1.9202  1.5106
 9492SOL     OW29916   4.903   7.099   1.272  0.2957 -0.2846 -0.3547
 9492SOL    HW129917   4.963   7.080   1.200 -0.4338  0.0270 -1.0699
 9492SOL    HW229918   4.901   7.019   1.324 -1.3390 -1.6184 -2.2917
 9493SOL     OW29919   0.116   0.945   7.910 -0.4506 -0.5684 -0.0716
 9493SOL    HW129920   0.116   0.889   7.833 -0.4565 -1.8339  0.8203
 9493SOL    HW229921   0.083   0.890   7.981 -1.5083  0.8821  0.6234
 9494SOL     OW29922   2.548   6.683  10.229  0.0221  0.2724  0.3728
 9494SOL    HW129923   2.547   6.697  10.324  1.0407  1.2201  0.2690
 9494SOL    HW229924   2.471   6.629  10.211 -1.0382  1.3542  1.5394
 9495SOL     OW29925   0.038   1.158   0.498  0.3919  0.0672  0.4905
 9495SOL    HW129926   0.100   1.154   0.571 -0.4525 -1.2384  1.1670
 9495SOL    HW229927   0.094   1.169   0.421  1.5186 -1.3206  1.0609
 9496SOL     OW29928   4.656   0.823   8.907 -0.2416 -0.1768  0.4352
 9496SOL    HW129929   4.637   0.757   8.974  1.1274  0.9704  2.0542
 9496SOL    HW229930   4.751   0.816   8.894 -0.5212 -0.5455 -1.6263
 9497SOL     OW29931   5.722   1.447   7.052  0.1524 -0.4914 -0.4529
 9497SOL    HW129932   5.784   1.408   7.114 -0.0085 -0.8153 -0.4909
 9497SOL    HW229933   5.651   1.481   7.107  1.2226  1.5526 -0.2537
 9498SOL     OW29934   7.803   1.834   9.744 -0.0289 -0.9043 -0.1525
 9498SOL    HW129935   7.837   1.789   9.666  0.4606 -1.1121  0.1777
 9498SOL    HW229936   7.835   1.923   9.736 -0.7534 -0.6777 -0.6571
 9499SOL     OW29937   7.421   0.688   4.182  0.2138 -0.1831 -0.4984
 9499SOL    HW129938   7.409   0.629   4.257  0.1069  0.8137  0.2950
 9499SOL    HW229939   7.380   0.642   4.109  0.0115 -1.0356  0.1278
 9500SOL     OW29940   7.331   5.280   7.157 -0.3102  0.2703  0.1265
 9500SOL    HW129941   7.344   5.199   7.107  0.9183  0.0221  0.8219
 9500SOL    HW229942   7.312   5.346   7.090  1.9698  0.0966 -0.7714
 9501SOL     OW29943   7.168   3.596   0.860 -0.3998  0.5945  0.0778
 9501SOL    HW129944   7.107   3.529   0.830 -0.0216 -0.1499  0.9411
 9501SOL    HW229945   7.117   3.650   0.920 -0.7103  1.1091 -0.6345
 9502SOL     OW29946   1.637   0.735   3.790  0.2596 -0.0669  0.2767
 9502SOL    HW129947   1.602   0.652   3.757  0.7913 -0.4723  0.7212
 9502SOL    HW229948   1.605   0.741   3.880  1.1522 -0.3437  0.6218
 9503SOL     OW29949   6.865   7.889  12.280  0.7388  0.3199 -0.1792
 9503SOL    HW129950   6.877   7.931  12.365  2.4271 -1.4474  0.5162
 9503SOL    HW229951   6.941   7.915  12.229  0.0185  0.9127 -0.9797
 9504SOL     OW29952   4.863   4.992   1.020 -0.2209  0.9450 -0.7267
 9504SOL    HW129953   4.847   4.915   0.965 -0.7596  0.7359 -0.2877
 9504SOL    HW229954   4.950   4.978   1.056 -0.3523  0.4815 -0.5730
 9505SOL     OW29955   6.480   1.759   3.239 -0.4673 -0.2568  0.1181
 9505SOL    HW129956   6.456   1.849   3.216 -0.1658  0.1217  1.2320
 9505SOL    HW229957   6.428   1.705   3.180 -1.4294  0.6292  0.1214
 9506SOL     OW29958   1.506   5.384   2.216  0.1225  0.0346 -0.2445
 9506SOL    HW129959   1.518   5.293   2.191 -1.7308 -0.1403 -0.6430
 9506SOL    HW229960   1.412   5.399   2.209  0.4548  2.1965 -0.9345
 9507SOL     OW29961   3.956   6.253   5.425  0.2399 -0.3737  0.1178
 9507SOL    HW129962   3.882   6.196   5.404  0.7604 -0.2198 -2.4492
 9507SOL    HW229963   4.033   6.197   5.412  0.6559  0.2035  0.0819
 9508SOL     OW29964   2.718   1.057  10.111 -0.1118 -0.0954  0.5278
 9508SOL    HW129965   2.657   1.099  10.171 -0.5997 -0.3963  0.2543
 9508SOL    HW229966   2.721   1.115  10.035 -0.3392 -0.2661  0.3892
 9509SOL     OW29967   7.158   1.273   4.747 -0.4774  0.2506 -0.0296
 9509SOL    HW129968   7.124   1.243   4.831 -1.9365  0.5003 -0.4927
 9509SOL    HW229969   7.081   1.278   4.690  0.5150 -0.2201 -1.4815
 9510SOL     OW29970   5.051   5.121  11.605  0.3156  1.4534 -0.2644
 9510SOL    HW129971   4.993   5.071  11.664  0.9392  2.1864  1.0122
 9510SOL    HW229972   4.991   5.173  11.552 -0.2544  1.1456  0.0546
 9511SOL     OW29973   0.908   6.623   5.519  0.1919 -0.4032  0.2976
 9511SOL    HW129974   0.883   6.558   5.585 -1.4490  0.7035  0.8319
 9511SOL    HW229975   0.906   6.706   5.566  2.5289  0.0543 -0.3038
 9512SOL     OW29976   6.258   5.651   5.838  0.3508 -0.4529 -0.1991
 9512SOL    HW129977   6.197   5.586   5.804 -1.1114  0.3781  0.7434
 9512SOL    HW229978   6.296   5.691   5.759  0.6436 -1.8242 -0.7842
 9513SOL     OW29979   3.604   5.411  10.733 -0.1983 -0.5347  0.4169
 9513SOL    HW129980   3.540   5.340  10.722 -0.3333 -0.3899  0.2700
 9513SOL    HW229981   3.567   5.465  10.803 -0.7447  0.1105 -0.3482
 9514SOL     OW29982   7.913   7.822   6.999 -0.1906  0.4063  0.0710
 9514SOL    HW129983   7.831   7.820   6.949 -1.0387  0.4296  1.4099
 9514SOL    HW229984   7.924   7.914   7.023  1.2331  0.7279 -1.6497
 9515SOL     OW29985   6.289   7.646   1.974  0.0292  0.1281 -0.6091
 9515SOL    HW129986   6.229   7.673   1.904 -0.1364  1.0208 -0.1466
 9515SOL    HW229987   6.328   7.565   1.942  1.4404  1.5008 -2.6415
 9516SOL     OW29988   3.621   3.732   4.179 -0.6375 -0.1590 -0.0637
 9516SOL    HW129989   3.707   3.773   4.178 -1.2082  1.1434  0.9413
 9516SOL    HW229990   3.638   3.640   4.194  0.6360 -0.1505 -1.2694
 9517SOL     OW29991   2.425   5.897  11.875  0.4456  0.0579 -0.2252
 9517SOL    HW129992   2.416   5.864  11.964  1.7157  3.4661  1.2987
 9517SOL    HW229993   2.394   5.824  11.820 -1.0905 -1.9104  2.9490
 9518SOL     OW29994   5.577   3.131   3.193 -0.6329 -0.4681 -0.4872
 9518SOL    HW129995   5.596   3.185   3.117 -2.7465  0.4242 -0.4573
 9518SOL    HW229996   5.632   3.167   3.263 -1.8070  1.5496 -0.5327
 9519SOL     OW29997   7.471   6.857  10.674 -0.0254 -0.3304 -0.1265
 9519SOL    HW129998   7.434   6.936  10.714  0.8741 -1.0200  2.2201
 9519SOL    HW229999   7.528   6.820  10.741  3.6164 -0.2951 -2.9254
 9520SOL     OW30000   0.328   4.857   9.802 -0.4260 -0.1612 -0.4809
 9520SOL    HW130001   0.391   4.823   9.865  0.8381 -1.5677 -2.3935
 9520SOL    HW230002   0.356   4.947   9.786 -0.4856  0.0582  0.5632
 9521SOL     OW30003   4.815   6.513   6.782  1.2342 -0.2089 -0.3539
 9521SOL    HW130004   4.896   6.549   6.745  0.4941  0.4542 -1.3868
 9521SOL    HW230005   4.826   6.418   6.775  1.6378 -0.1136 -1.1608
 9522SOL     OW30006   1.285   6.856  10.862 -0.3322  0.1924  0.2701
 9522SOL    HW130007   1.214   6.795  10.846 -0.0755  0.0614 -0.4078
 9522SOL    HW230008   1.327   6.867  10.777  1.3974 -0.8981  0.9213
 9523SOL     OW30009   1.907   3.378   6.241 -0.2067 -0.0323  0.5397
 9523SOL    HW130010   1.935   3.458   6.196  0.3300 -0.2301  0.5075
 9523SOL    HW230011   1.873   3.322   6.171  0.5704 -0.3154  0.3759
 9524SOL     OW30012   5.856   1.456   1.078 -0.3251  0.3661 -0.0574
 9524SOL    HW130013   5.842   1.485   1.168  0.6936 -0.3417  0.3516
 9524SOL    HW230014   5.910   1.525   1.039 -1.2727  0.9775 -0.3370
 9525SOL     OW30015   7.794   1.337  10.230 -0.7311 -0.1235  0.0095
 9525SOL    HW130016   7.817   1.285  10.153 -0.1566 -0.2501  0.2578
 9525SOL    HW230017   7.877   1.374  10.260 -1.3299  2.3029 -1.1008
 9526SOL     OW30018   0.867   4.093   4.790 -0.7126 -0.2314 -0.1415
 9526SOL    HW130019   0.854   4.006   4.827 -0.7636  0.4090  1.4401
 9526SOL    HW230020   0.958   4.114   4.809 -0.6445 -0.0101 -0.6962
 9527SOL     OW30021   1.346   0.591   4.671  0.3546  0.6204 -0.0121
 9527SOL    HW130022   1.344   0.519   4.609 -1.3456 -0.2866  1.0234
 9527SOL    HW230023   1.295   0.559   4.746 -0.4641  2.9026  0.4689
 9528SOL     OW30024   2.609   4.449   2.866 -0.6585  0.2335  0.5798
 9528SOL    HW130025   2.618   4.485   2.778  0.7722 -0.7992  0.2645
 9528SOL    HW230026   2.687   4.395   2.878 -0.3671  1.0101  2.8050
 9529SOL     OW30027   4.370   2.057   7.849 -0.0315 -0.4841  0.2968
 9529SOL    HW130028   4.285   2.016   7.835 -1.0368  0.8941  1.9467
 9529SOL    HW230029   4.367   2.087   7.940  1.9074  0.3345  0.1329
 9530SOL     OW30030   6.988   3.183   5.463  0.5333  0.1599  0.3726
 9530SOL    HW130031   7.080   3.203   5.444  1.5400 -1.1068  3.2820
 9530SOL    HW230032   6.971   3.102   5.415  0.3344  1.2633 -1.5171
 9531SOL     OW30033   1.545   2.440   2.466  0.6129 -0.5925  0.3335
 9531SOL    HW130034   1.521   2.457   2.375  0.1144 -1.6932  0.2420
 9531SOL    HW230035   1.621   2.382   2.460  1.6453  0.6866  0.6330
 9532SOL     OW30036   1.891   6.700   4.345 -0.3357 -0.3040  0.0557
 9532SOL    HW130037   1.799   6.718   4.359 -0.3510  0.0885 -0.4940
 9532SOL    HW230038   1.935   6.785   4.357 -0.1448 -0.3287 -0.4195
 9533SOL     OW30039   4.177   5.719   7.208  0.2891  0.1630 -0.5371
 9533SOL    HW130040   4.173   5.628   7.239 -0.6989  0.1972 -0.5237
 9533SOL    HW230041   4.137   5.716   7.121 -0.6992  0.7516 -0.1157
 9534SOL     OW30042   0.088   4.604   4.556  0.3867 -0.5815 -0.0163
 9534SOL    HW130043   0.151   4.608   4.484  1.2470 -0.3230  0.7246
 9534SOL    HW230044   0.050   4.517   4.550  2.4764 -1.6351  0.8433
 9535SOL     OW30045   5.450   4.475   2.288 -0.2441 -0.0588 -0.7583
 9535SOL    HW130046   5.380   4.498   2.348  0.9302 -0.7729  0.9685
 9535SOL    HW230047   5.524   4.451   2.344  1.5553  1.0863 -2.4697
 9536SOL     OW30048   7.654   5.361   5.306 -0.4394 -0.2803 -0.1459
 9536SOL    HW130049   7.704   5.280   5.301 -1.3178 -0.8861  0.5082
 9536SOL    HW230050   7.565   5.333   5.328 -0.4162  0.9696  1.7928
 9537SOL     OW30051   7.602   4.073   9.567  0.2187  0.1187  0.9419
 9537SOL    HW130052   7.543   4.079   9.491  0.4295 -1.3856  0.6175
 9537SOL    HW230053   7.681   4.119   9.539 -0.8955  2.5782  1.5541
 9538SOL     OW30054   6.109   0.196   2.640 -0.6035 -0.1756 -0.0482
 9538SOL    HW130055   6.165   0.269   2.666 -1.4464  0.6382 -0.4191
 9538SOL    HW230056   6.078   0.159   2.723  1.4828 -1.4927  0.2023
 9539SOL     OW30057   6.476   3.287   4.719  0.2099 -0.3833  0.2600
 9539SOL    HW130058   6.458   3.194   4.706 -0.5008 -0.1996 -0.0965
 9539SOL    HW230059   6.397   3.322   4.760  1.1762 -0.2947  2.2116
 9540SOL     OW30060   6.488   0.144   1.236  0.3771 -0.8194 -0.1720
 9540SOL    HW130061   6.427   0.077   1.268  0.6841 -0.7273  0.6261
 9540SOL    HW230062   6.563   0.138   1.295 -0.9653  2.4663  2.1350
 9541SOL     OW30063   4.872   3.761   3.695  0.9709 -0.0018  0.2308
 9541SOL    HW130064   4.854   3.812   3.616  0.0210 -2.5466 -1.3118
 9541SOL    HW230065   4.961   3.786   3.720  0.6710  2.1177 -0.5970
 9542SOL     OW30066   5.951   0.920   6.322  0.6656  0.0796  0.1001
 9542SOL    HW130067   5.951   1.016   6.324  1.4380  0.1237 -1.0334
 9542SOL    HW230068   5.874   0.897   6.271  1.1400  0.1445 -0.6548
 9543SOL     OW30069   0.737   1.369   5.724  0.8931  0.2948  0.6366
 9543SOL    HW130070   0.655   1.385   5.677  1.1760 -1.6775 -0.6490
 9543SOL    HW230071   0.780   1.454   5.726 -1.0090  1.2959  1.0327
 9544SOL     OW30072   3.052   7.098   3.357 -0.4169 -0.6227 -0.1615
 9544SOL    HW130073   3.134   7.049   3.346  0.2734 -0.1638  2.2961
 9544SOL    HW230074   2.993   7.061   3.292  1.6997 -1.0332 -1.9813
 9545SOL     OW30075   5.289   1.729   5.254  0.1290 -0.2053 -0.5123
 9545SOL    HW130076   5.328   1.762   5.173  0.3753  0.4758 -0.1319
 9545SOL    HW230077   5.231   1.658   5.227  2.1666 -1.7605 -1.0269
 9546SOL     OW30078   1.699   0.075   9.538  0.2606  0.5089  0.3735
 9546SOL    HW130079   1.615   0.080   9.583 -0.2044 -1.2981 -0.1841
 9546SOL    HW230080   1.764   0.076   9.608 -0.3197  0.3014  0.9302
 9547SOL     OW30081   2.564   4.283   7.728  0.0276 -0.1326  0.0419
 9547SOL    HW130082   2.656   4.306   7.715 -0.0246  0.0497  0.0039
 9547SOL    HW230083   2.520   4.317   7.650  0.1135 -1.2662 -0.5350
 9548SOL     OW30084   0.063   1.564   4.349  0.7707  0.1070  0.2221
 9548SOL    HW130085  -0.001   1.541   4.282 -0.2541  2.4694  0.2893
 9548SOL    HW230086   0.145   1.525   4.319  0.1604  0.4118 -1.9561
 9549SOL     OW30087   7.299   5.390   6.404  0.0675  0.0555  0.4731
 9549SOL    HW130088   7.342   5.426   6.326 -2.0684  0.6028 -0.5498
 9549SOL    HW230089   7.286   5.465   6.462  2.5474 -0.5151  1.9003
 9550SOL     OW30090   7.626   4.379   3.464  0.3243 -0.1620 -0.2577
 9550SOL    HW130091   7.668   4.451   3.418  0.5884 -0.0057  0.2239
 9550SOL    HW230092   7.632   4.402   3.557 -1.0060 -0.0325 -0.1777
 9551SOL     OW30093   3.916   0.074  12.030 -0.1254  0.6021 -0.5624
 9551SOL    HW130094   3.951   0.009  11.968  2.1380  1.2861 -0.0968
 9551SOL    HW230095   3.845   0.117  11.982 -0.1747 -0.6670 -1.7000
 9552SOL     OW30096   0.291   6.434   2.057  0.2140  0.1884  0.2118
 9552SOL    HW130097   0.263   6.436   1.965  1.4618  0.4092 -0.1918
 9552SOL    HW230098   0.325   6.346   2.070 -1.8079 -0.5106  1.0833
 9553SOL     OW30099   6.799   0.692   3.441 -0.1015 -0.7229  0.2763
 9553SOL    HW130100   6.732   0.636   3.404 -0.6293 -0.6177  1.0486
 9553SOL    HW230101   6.779   0.695   3.535  1.3294 -1.1766  0.6264
 9554SOL     OW30102   7.289   2.817  11.721 -0.1009 -0.2838  0.0170
 9554SOL    HW130103   7.290   2.836  11.815  0.2002 -0.0522 -0.0316
 9554SOL    HW230104   7.210   2.765  11.708  0.4619 -1.3119  0.5971
 9555SOL     OW30105   3.967   2.375   0.889  0.2869 -0.3077 -0.0902
 9555SOL    HW130106   3.907   2.379   0.814  0.1428  1.6659  0.0591
 9555SOL    HW230107   4.000   2.285   0.890 -1.1096 -0.8714 -1.4056
 9556SOL     OW30108   7.767   5.768   3.050  0.2441  0.5593 -0.2390
 9556SOL    HW130109   7.728   5.742   2.967 -0.0801 -0.3374  0.1812
 9556SOL    HW230110   7.744   5.861   3.059 -0.3394  0.4777 -0.7980
 9557SOL     OW30111   5.423   4.850   1.704  0.0653 -0.1548  0.1373
 9557SOL    HW130112   5.342   4.799   1.710  0.1439 -0.6128 -1.8440
 9557SOL    HW230113   5.432   4.891   1.789 -3.3495  1.5458 -0.1572
 9558SOL     OW30114   6.440   1.283   0.669  0.2550  0.2387 -0.3854
 9558SOL    HW130115   6.426   1.325   0.584  0.8992  0.2129 -0.5139
 9558SOL    HW230116   6.523   1.236   0.659  0.1114 -0.1304  0.1174
 9559SOL     OW30117   2.269   7.729   2.248  0.0449 -0.0693  0.2985
 9559SOL    HW130118   2.358   7.757   2.226 -0.2528  2.3174  1.7801
 9559SOL    HW230119   2.227   7.714   2.164  1.2306  0.8230 -0.4894
 9560SOL     OW30120   7.370   4.481  11.226  0.0950 -0.2183 -0.3508
 9560SOL    HW130121   7.386   4.572  11.201 -1.9668  0.0060 -1.0245
 9560SOL    HW230122   7.292   4.485  11.281  0.8377 -1.4528  0.8561
 9561SOL     OW30123   1.911   0.874   3.742 -0.2340  0.0278  0.0651
 9561SOL    HW130124   1.924   0.955   3.693 -1.1560  1.4654  2.1124
 9561SOL    HW230125   1.827   0.840   3.711 -0.3082  0.3642 -0.1022
 9562SOL     OW30126   5.813   6.053   1.465 -0.1610  0.0618  0.4151
 9562SOL    HW130127   5.846   6.106   1.393 -0.2494  0.4293  0.6440
 9562SOL    HW230128   5.767   6.115   1.522 -1.1026 -0.4075  0.1902
 9563SOL     OW30129   6.271   1.837   5.654  0.1444  0.0160 -0.0868
 9563SOL    HW130130   6.241   1.748   5.636 -2.6201  0.7746  0.3107
 9563SOL    HW230131   6.252   1.851   5.746  2.1990  0.4743  0.3147
 9564SOL     OW30132   6.993   3.557   4.818 -0.1668 -0.4280 -0.4055
 9564SOL    HW130133   6.904   3.589   4.802  0.1481  0.3275 -0.7134
 9564SOL    HW230134   7.002   3.561   4.913  0.0292  0.9012 -0.4649
 9565SOL     OW30135   2.320   6.527   4.612  0.3546  0.8759 -0.3003
 9565SOL    HW130136   2.298   6.533   4.519 -0.8479  0.3689 -0.0694
 9565SOL    HW230137   2.392   6.465   4.616 -0.5910 -0.2986 -0.7773
 9566SOL     OW30138   6.358   3.238  11.991  0.4057  0.3294 -0.2320
 9566SOL    HW130139   6.271   3.266  11.962  1.1120  1.7411 -1.1103
 9566SOL    HW230140   6.357   3.251  12.086 -0.1529  0.9039 -0.3091
 9567SOL     OW30141   4.607   6.333  11.213  0.1698  0.0984 -0.0807
 9567SOL    HW130142   4.568   6.359  11.297  0.1518  2.3200 -0.7230
 9567SOL    HW230143   4.534   6.299  11.162  0.1365 -1.0448  0.6760
 9568SOL     OW30144   7.612   2.706   7.883  0.8744  0.0533 -0.4960
 9568SOL    HW130145   7.706   2.722   7.876  1.1074 -1.7363 -2.3668
 9568SOL    HW230146   7.605   2.626   7.935  0.3396  0.3100 -0.1606
 9569SOL     OW30147   4.573   0.274   3.702  0.1484  0.0346 -0.6056
 9569SOL    HW130148   4.591   0.183   3.727 -1.7449 -0.6711 -1.6751
 9569SOL    HW230149   4.658   0.308   3.673  0.8498 -1.4270 -0.3264
 9570SOL     OW30150   4.390   4.573   8.521 -0.5428  1.2391 -0.3034
 9570SOL    HW130151   4.446   4.636   8.477  0.7388  1.1333  1.1153
 9570SOL    HW230152   4.351   4.622   8.593  0.8430  0.3459  1.1120
 9571SOL     OW30153   1.838   1.663   4.865 -0.1416 -0.4234  0.2211
 9571SOL    HW130154   1.790   1.644   4.784  1.5187 -1.6757 -0.5333
 9571SOL    HW230155   1.929   1.673   4.837  0.1922  1.1298  1.6993
 9572SOL     OW30156   6.147   7.708   1.542  0.1827 -0.1672  0.0762
 9572SOL    HW130157   6.148   7.734   1.634 -0.5188  0.6085 -0.1283
 9572SOL    HW230158   6.205   7.772   1.499 -0.2011  0.0270 -0.1575
 9573SOL     OW30159   5.197   7.813   8.490  0.0249  0.3903  0.2056
 9573SOL    HW130160   5.216   7.866   8.412 -0.5007 -0.8275 -0.7948
 9573SOL    HW230161   5.154   7.735   8.455 -0.4661 -0.0621  1.7661
 9574SOL     OW30162   2.353   3.558   4.907  0.2386  0.3183 -0.1817
 9574SOL    HW130163   2.276   3.535   4.855  0.1772  1.3836 -0.5992
 9574SOL    HW230164   2.336   3.648   4.936 -0.0504 -0.4760  2.2985
 9575SOL     OW30165   2.350   4.289   2.867 -0.7289  0.0726 -0.0353
 9575SOL    HW130166   2.307   4.375   2.874 -2.8096 -0.9553  0.9578
 9575SOL    HW230167   2.442   4.307   2.885 -0.9791  2.1910 -0.5543
 9576SOL     OW30168   0.697   0.328   1.561 -0.4198  0.3997  0.2063
 9576SOL    HW130169   0.634   0.399   1.579 -1.2512  0.0221 -1.0499
 9576SOL    HW230170   0.720   0.341   1.469  1.5668  0.6667  0.7036
 9577SOL     OW30171   5.322   6.760   4.788 -0.4183 -0.2470  0.8025
 9577SOL    HW130172   5.414   6.759   4.758 -0.7689 -0.7783 -0.3188
 9577SOL    HW230173   5.284   6.681   4.749 -1.6582  0.5926  0.2639
 9578SOL     OW30174   7.934   5.988  10.010  0.0887  0.2382  0.6337
 9578SOL    HW130175   8.022   6.025  10.020 -0.1696  1.0148  0.1270
 9578SOL    HW230176   7.926   5.926  10.083  0.6931  0.8736  1.2654
 9579SOL     OW30177   0.836   2.854   5.636  0.0962  0.2109  0.6648
 9579SOL    HW130178   0.842   2.798   5.714 -1.2411 -1.5133 -0.4082
 9579SOL    HW230179   0.795   2.935   5.668 -1.2836 -0.8138  1.6395
 9580SOL     OW30180   7.901   0.591   0.274  0.0600  0.2480 -0.3733
 9580SOL    HW130181   7.954   0.646   0.216 -1.1170  2.2029  0.3092
 9580SOL    HW230182   7.932   0.612   0.362 -1.0433  0.5416 -0.0419
 9581SOL     OW30183   2.987   1.444   1.896  0.1997  0.1420 -0.2074
 9581SOL    HW130184   2.920   1.460   1.830 -1.0708  1.0184  1.2422
 9581SOL    HW230185   3.039   1.524   1.897  0.3088  0.0715 -0.2391
 9582SOL     OW30186   5.811   7.926   3.553  0.5467 -0.8908  1.0254
 9582SOL    HW130187   5.735   7.953   3.605  0.8017  0.3317  0.8049
 9582SOL    HW230188   5.774   7.898   3.469  0.4209  2.1465 -0.0683
 9583SOL     OW30189   6.574   6.575   0.521 -0.6605 -0.5315  0.4641
 9583SOL    HW130190   6.531   6.513   0.580  1.2330 -2.2227  0.1951
 9583SOL    HW230191   6.606   6.645   0.579 -1.2149 -0.7462  1.0426
 9584SOL     OW30192   5.875   3.367   1.391  0.1049  0.3680  0.0952
 9584SOL    HW130193   5.902   3.289   1.343  0.2159  1.0813 -1.0411
 9584SOL    HW230194   5.889   3.345   1.483 -0.2009 -1.0716 -0.1830
 9585SOL     OW30195   1.133   7.237  10.743 -0.4808  0.0967  0.6567
 9585SOL    HW130196   1.051   7.263  10.701 -1.0885  0.6591  2.1479
 9585SOL    HW230197   1.129   7.274  10.831  2.0853  1.4985  0.2963
 9586SOL     OW30198   0.523   3.064   2.073 -0.1428 -0.0397 -0.3504
 9586SOL    HW130199   0.507   3.149   2.033  2.1533 -0.4231 -2.2963
 9586SOL    HW230200   0.604   3.076   2.124 -0.8013 -0.6280  0.8902
 9587SOL     OW30201   1.952   0.420   8.704 -0.1406 -0.2212 -0.3446
 9587SOL    HW130202   1.949   0.490   8.769  2.6790  0.4632 -0.8214
 9587SOL    HW230203   1.867   0.423   8.660 -0.8439  1.5077  1.0513
 9588SOL     OW30204   4.900   1.980   2.690  0.0570 -0.3367  0.6728
 9588SOL    HW130205   4.887   1.935   2.607  1.8900 -1.4939  0.9492
 9588SOL    HW230206   4.866   1.920   2.756  0.2425 -0.2361  0.8644
 9589SOL     OW30207   3.897   4.698  11.938 -0.6263  0.4395 -0.6693
 9589SOL    HW130208   3.838   4.656  11.875  2.1416 -1.0747 -2.4716
 9589SOL    HW230209   3.845   4.706  12.018 -3.9240  1.3322 -2.7176
 9590SOL     OW30210   2.529   0.594   1.170 -0.5329 -0.0227 -0.2183
 9590SOL    HW130211   2.558   0.572   1.082 -2.5029 -1.9220 -0.4646
 9590SOL    HW230212   2.453   0.651   1.157  0.8723  2.1333  0.3696
 9591SOL     OW30213   0.733   4.230   9.852  0.3315 -0.1810  0.0339
 9591SOL    HW130214   0.825   4.254   9.861  0.1619  0.4402  0.1463
 9591SOL    HW230215   0.686   4.293   9.906 -0.2519  0.1735 -0.8751
 9592SOL     OW30216   4.670   6.553   1.378  0.4155 -0.4086  0.0171
 9592SOL    HW130217   4.661   6.506   1.295 -1.3535  1.1706 -0.7807
 9592SOL    HW230218   4.583   6.591   1.393  1.7349  2.7034  0.4986
 9593SOL     OW30219   6.771   4.223   0.933 -0.1274 -0.6922  0.2070
 9593SOL    HW130220   6.787   4.135   0.900 -1.3828 -1.1606  0.7901
 9593SOL    HW230221   6.705   4.260   0.875  0.7656  0.0842 -0.3500
 9594SOL     OW30222   3.591   6.905  10.008  0.3144 -0.4110 -0.2448
 9594SOL    HW130223   3.660   6.859  10.056  2.0891  1.7727 -0.5332
 9594SOL    HW230224   3.636   6.941   9.931 -1.2444  0.7539 -0.6560
 9595SOL     OW30225   3.015   0.490  10.182  0.1482  0.2893  0.0824
 9595SOL    HW130226   2.945   0.513  10.121  0.0543 -1.3768 -0.5198
 9595SOL    HW230227   3.095   0.500  10.131  0.2870  1.2618  0.4719
 9596SOL     OW30228   1.181   3.937   5.838  0.3588  0.0527 -0.4221
 9596SOL    HW130229   1.133   3.904   5.914  0.2177  0.9636 -0.0934
 9596SOL    HW230230   1.254   3.986   5.877  0.0764  0.8402 -0.8527
 9597SOL     OW30231   4.879   5.779   5.122 -0.0173 -0.2629  0.2101
 9597SOL    HW130232   4.859   5.804   5.212 -1.8391 -1.9680  0.3537
 9597SOL    HW230233   4.900   5.686   5.127  0.9804 -0.1321 -1.0119
 9598SOL     OW30234   6.934   2.667   9.126 -0.1903  0.2118 -0.7949
 9598SOL    HW130235   7.028   2.674   9.108  0.5610 -1.8875  1.6748
 9598SOL    HW230236   6.909   2.755   9.155  1.9641  0.0426  2.0356
 9599SOL     OW30237   4.453   4.921   1.440 -0.5256  0.2238  0.0659
 9599SOL    HW130238   4.484   4.901   1.528 -0.0098 -1.1022 -0.3855
 9599SOL    HW230239   4.438   4.835   1.400 -0.9223  0.8059 -1.0784
 9600SOL     OW30240   0.678   6.888   2.484 -0.0494  0.1726  0.1747
 9600SOL    HW130241   0.676   6.798   2.517  2.0660 -0.0181 -0.0714
 9600SOL    HW230242   0.716   6.939   2.556  1.5103  0.3266 -0.7245
 9601SOL     OW30243   4.926   3.959  10.834 -0.2489 -0.2277 -0.3315
 9601SOL    HW130244   4.890   4.028  10.778 -1.4629 -0.9104 -0.4419
 9601SOL    HW230245   4.934   3.999  10.920 -0.6702  0.1482 -0.4595
 9602SOL     OW30246   1.143   2.636   4.187 -0.4467 -0.4443  0.3725
 9602SOL    HW130247   1.199   2.575   4.139 -0.3415 -0.0891  0.0346
 9602SOL    HW230248   1.204   2.695   4.231 -0.4975  1.3588 -1.7886
 9603SOL     OW30249   2.677   7.540  12.270 -0.0407 -0.0637  0.3098
 9603SOL    HW130250   2.641   7.465  12.317  0.6364  1.5962  3.7870
 9603SOL    HW230251   2.606   7.605  12.272  0.4714  0.5021  0.2607
 9604SOL     OW30252   2.306   6.657   5.199 -0.0225 -0.0459 -0.0827
 9604SOL    HW130253   2.371   6.614   5.254  0.8918 -0.3071 -1.3058
 9604SOL    HW230254   2.343   6.652   5.110 -1.1269  0.9312 -0.6297
 9605SOL     OW30255   7.895   4.074   9.841 -0.1963  0.3157  0.2825
 9605SOL    HW130256   7.913   4.121   9.759  1.4416 -1.1741 -0.2862
 9605SOL    HW230257   7.979   4.075   9.887 -0.1727 -1.7396  0.3783
 9606SOL     OW30258   6.617   0.272  10.230 -0.5772 -1.1909 -0.2213
 9606SOL    HW130259   6.624   0.178  10.248 -1.0345 -0.9401  1.3445
 9606SOL    HW230260   6.608   0.313  10.316  0.2655  0.3564 -0.8391
 9607SOL     OW30261   1.834   7.952   3.135 -0.1156 -0.3519  0.1733
 9607SOL    HW130262   1.888   8.031   3.145 -1.7915  1.0295 -1.0311
 9607SOL    HW230263   1.774   7.955   3.211  0.2851 -0.8711  0.5132
 9608SOL     OW30264   2.695   2.415   7.194  0.2932 -0.7735 -0.0460
 9608SOL    HW130265   2.621   2.448   7.246  0.9509 -1.0335  1.0849
 9608SOL    HW230266   2.760   2.389   7.259  0.8096 -1.9191 -0.9882
 9609SOL     OW30267   2.747   7.404  12.022 -0.5070 -0.3838 -0.7588
 9609SOL    HW130268   2.736   7.475  12.086 -0.4595 -0.7383 -0.3573
 9609SOL    HW230269   2.704   7.329  12.062  1.2131 -1.1481 -0.2538
 9610SOL     OW30270   7.604   3.303   0.976  0.0945 -0.2992  0.3933
 9610SOL    HW130271   7.635   3.302   1.067 -1.0933  0.5450  0.8238
 9610SOL    HW230272   7.597   3.396   0.954 -1.4193 -0.4677  0.0755
 9611SOL     OW30273   7.424   1.656   3.699 -0.0832 -0.3266  0.8384
 9611SOL    HW130274   7.331   1.678   3.688  0.3195  1.7463  1.1653
 9611SOL    HW230275   7.424   1.591   3.769 -1.2485  0.1914  1.3544
 9612SOL     OW30276   4.596   6.063   2.979 -0.7385 -0.4729  0.2593
 9612SOL    HW130277   4.634   6.053   3.066 -0.8589 -0.1245  0.3527
 9612SOL    HW230278   4.565   6.153   2.977  0.6162  0.0015 -0.6826
 9613SOL     OW30279   0.092   1.236   7.627 -0.2197 -0.3113  0.1091
 9613SOL    HW130280   0.069   1.166   7.688 -0.1939 -1.4090 -1.0773
 9613SOL    HW230281   0.011   1.284   7.613 -0.5840 -0.9787 -0.1164
 9614SOL     OW30282   0.223   6.441   0.112  0.3549  0.2105 -0.3318
 9614SOL    HW130283   0.310   6.449   0.071  0.2393  2.3922 -0.2458
 9614SOL    HW230284   0.171   6.510   0.072 -0.0325  1.9003  2.7703
 9615SOL     OW30285   7.349   4.586   1.480  0.4245 -0.4079 -0.4223
 9615SOL    HW130286   7.341   4.493   1.461 -0.0143 -0.0570 -2.1356
 9615SOL    HW230287   7.333   4.629   1.397 -0.7739  1.2787  0.6186
 9616SOL     OW30288   1.921   1.964   2.827  0.2756  0.3998 -0.5903
 9616SOL    HW130289   1.934   2.044   2.776 -0.2048  0.5006 -0.5649
 9616SOL    HW230290   1.829   1.942   2.813  0.0246  0.6520  0.5448
 9617SOL     OW30291   4.041   6.647   0.624  0.2761 -0.2405 -0.3594
 9617SOL    HW130292   4.016   6.620   0.713  0.1153  0.5252 -0.1645
 9617SOL    HW230293   3.979   6.603   0.567 -0.5255  0.3912  0.0125
 9618SOL     OW30294   3.133   1.552   3.552  0.3142  0.3586  0.0014
 9618SOL    HW130295   3.037   1.549   3.555  0.3254  0.0810  0.1539
 9618SOL    HW230296   3.153   1.599   3.471  0.0456  0.9966  0.2958
 9619SOL     OW30297   1.966   3.198  11.407 -0.3714  0.2660  0.2174
 9619SOL    HW130298   1.922   3.253  11.472 -1.7119  1.3003 -1.4726
 9619SOL    HW230299   1.906   3.126  11.391  0.1454 -0.2181  0.4264
 9620SOL     OW30300   6.649   6.982   9.701  0.5248 -0.1416  0.0389
 9620SOL    HW130301   6.731   6.976   9.750  0.4475 -0.3431  0.1423
 9620SOL    HW230302   6.668   7.042   9.629  0.9493 -0.6871 -0.3118
 9621SOL     OW30303   5.916   6.554   4.301  0.4016 -0.3753 -0.1824
 9621SOL    HW130304   5.958   6.574   4.217  0.5360  0.0419 -0.0176
 9621SOL    HW230305   5.956   6.472   4.329 -0.2022 -0.9318 -0.8965
 9622SOL     OW30306   6.752   7.470   8.795  0.1125  0.9287 -0.3730
 9622SOL    HW130307   6.814   7.398   8.779  0.0309  0.6620  0.4386
 9622SOL    HW230308   6.701   7.476   8.714 -0.6529 -0.7067 -0.0619
 9623SOL     OW30309   7.510   2.301  11.406 -0.0869  0.4047 -0.2921
 9623SOL    HW130310   7.591   2.305  11.356 -0.5192 -3.6425 -1.6592
 9623SOL    HW230311   7.535   2.261  11.489 -0.3148  1.7331  0.4486
 9624SOL     OW30312   3.138   6.164   7.236 -0.3636  0.1321  0.1004
 9624SOL    HW130313   3.147   6.198   7.147 -1.2040  0.3216  0.0841
 9624SOL    HW230314   3.060   6.206   7.270 -0.6725 -0.7791  0.5486
 9625SOL     OW30315   5.835   4.243   9.653 -0.0525  0.6556  0.0671
 9625SOL    HW130316   5.836   4.334   9.621 -1.4785  0.4910 -0.5409
 9625SOL    HW230317   5.759   4.240   9.712  1.0504  0.2966  1.5043
 9626SOL     OW30318   6.102   6.709  10.606  0.2773  0.1791  0.0862
 9626SOL    HW130319   6.197   6.712  10.608  0.4130 -0.1985 -2.2074
 9626SOL    HW230320   6.081   6.616  10.597 -0.2149  0.3420 -0.6099
 9627SOL     OW30321   1.200   4.457   1.205 -0.1480 -0.2722  0.1738
 9627SOL    HW130322   1.269   4.515   1.236  0.8310 -0.8499 -0.8879
 9627SOL    HW230323   1.142   4.514   1.154 -0.2156  0.1160  0.6684
 9628SOL     OW30324   1.712   6.753   2.171 -0.2990 -0.0617  0.3086
 9628SOL    HW130325   1.784   6.714   2.222 -1.6639  0.1636  2.5601
 9628SOL    HW230326   1.642   6.766   2.235 -0.4124  5.0614 -0.4781
 9629SOL     OW30327   7.575   1.919   1.298  0.0450  0.4748 -0.8882
 9629SOL    HW130328   7.484   1.891   1.308  0.4639 -0.7803 -0.2678
 9629SOL    HW230329   7.623   1.838   1.282  1.0244  1.1539 -1.5223
 9630SOL     OW30330   6.571   7.065   6.274 -0.2438  0.1575  0.0700
 9630SOL    HW130331   6.510   7.016   6.219 -0.0007 -0.3288  0.2214
 9630SOL    HW230332   6.566   7.155   6.242 -0.9173  0.0906 -0.0200
 9631SOL     OW30333   4.676   1.502   0.325 -0.5615 -0.0702 -0.5467
 9631SOL    HW130334   4.590   1.523   0.289  0.1151  1.8213 -1.2223
 9631SOL    HW230335   4.735   1.566   0.284  1.0500 -0.8848  0.3995
 9632SOL     OW30336   5.175   4.502   1.814 -0.1517 -0.2779 -0.3823
 9632SOL    HW130337   5.086   4.482   1.841 -0.7813  0.1884 -2.0052
 9632SOL    HW230338   5.170   4.592   1.781  0.6882 -0.5931 -1.4112
 9633SOL     OW30339   6.189   1.220   2.045  0.0152 -0.3186 -0.1029
 9633SOL    HW130340   6.146   1.201   2.129 -1.1885 -0.6094 -0.7617
 9633SOL    HW230341   6.249   1.146   2.033 -0.8580 -1.0488 -0.1588
 9634SOL     OW30342   3.036   7.901  10.997  0.2816 -0.1266 -0.5326
 9634SOL    HW130343   3.127   7.883  11.019 -0.1244 -1.4906  0.1509
 9634SOL    HW230344   3.005   7.822  10.953 -0.5448  0.3543 -0.8404
 9635SOL     OW30345   7.203   0.510   0.811  0.0008 -0.1353  0.4004
 9635SOL    HW130346   7.254   0.588   0.788 -0.9401  0.5928  0.7235
 9635SOL    HW230347   7.112   0.538   0.805 -0.5235 -2.1047 -2.6904
 9636SOL     OW30348   2.279   2.079   7.521  0.2094 -0.0405 -0.0693
 9636SOL    HW130349   2.227   2.159   7.518 -0.1307 -0.2753 -1.0006
 9636SOL    HW230350   2.231   2.021   7.580 -0.7870 -0.3645 -1.1486
 9637SOL     OW30351   7.618   4.906   2.296  0.6214  0.3778 -0.2833
 9637SOL    HW130352   7.605   4.811   2.291  1.1558  0.3338 -1.1094
 9637SOL    HW230353   7.584   4.931   2.382 -1.8261 -0.1981 -1.0071
 9638SOL     OW30354   7.106   4.326  12.065 -0.2786  0.3188 -0.5544
 9638SOL    HW130355   7.036   4.349  12.127 -0.5396 -0.9512 -0.3447
 9638SOL    HW230356   7.083   4.374  11.986 -1.2794  0.1009 -0.4176
 9639SOL     OW30357   0.927   1.115   4.384 -0.5521 -0.4758 -0.0279
 9639SOL    HW130358   0.836   1.099   4.358  0.2180 -0.0757 -3.5455
 9639SOL    HW230359   0.924   1.200   4.428 -1.7133  0.6840 -2.1391
 9640SOL     OW30360   5.949   6.033   6.173 -0.2269 -0.2862 -0.3978
 9640SOL    HW130361   5.886   5.961   6.182  0.0150 -0.7926 -2.3434
 9640SOL    HW230362   6.019   5.997   6.119  1.4562  0.4759  1.1523
 9641SOL     OW30363   6.245   3.675   8.751 -0.6467 -0.6127 -0.0989
 9641SOL    HW130364   6.157   3.646   8.773 -2.2035  2.4289 -1.7515
 9641SOL    HW230365   6.275   3.612   8.686 -1.5434 -1.7045  0.5032
 9642SOL     OW30366   7.608   4.991   2.040 -0.5120 -0.3555  0.1899
 9642SOL    HW130367   7.597   5.084   2.019 -1.0195 -0.3786  0.3403
 9642SOL    HW230368   7.618   4.988   2.135  1.4280 -0.2859  0.0150
 9643SOL     OW30369   2.612   7.598   4.774 -0.0816 -0.2257  0.3711
 9643SOL    HW130370   2.572   7.666   4.829 -0.2700  0.2109 -0.2870
 9643SOL    HW230371   2.660   7.543   4.835  1.3270  1.3713  0.7726
 9644SOL     OW30372   1.971   3.009   2.950  0.2269 -0.0757 -0.0748
 9644SOL    HW130373   2.009   2.977   3.032  0.0052  0.2946  0.1772
 9644SOL    HW230374   1.912   3.080   2.977 -0.0596 -0.1359 -0.5302
 9645SOL     OW30375   4.236   3.636   0.610  0.0137  0.3413  0.1867
 9645SOL    HW130376   4.273   3.686   0.537 -0.1399  0.2070  0.0160
 9645SOL    HW230377   4.276   3.675   0.688  1.7304 -0.8153 -0.0557
 9646SOL     OW30378   3.131   1.415   7.077 -0.0253 -0.8826 -0.3371
 9646SOL    HW130379   3.146   1.449   7.165  1.6407 -1.6520 -0.2768
 9646SOL    HW230380   3.109   1.491   7.025 -2.8110 -0.6107  1.0440
 9647SOL     OW30381   5.371   2.675   4.294 -0.0954  0.2638 -0.0537
 9647SOL    HW130382   5.431   2.749   4.307  0.7337 -0.3906 -0.1081
 9647SOL    HW230383   5.426   2.604   4.261 -0.5708 -0.9004  1.5153
 9648SOL     OW30384   0.442   2.999  10.255  0.4545 -0.1357 -0.5975
 9648SOL    HW130385   0.453   3.088  10.287 -1.8564  0.0327 -0.1684
 9648SOL    HW230386   0.426   2.947  10.333  2.1237 -1.0533 -0.8043
 9649SOL     OW30387   7.417   2.332   9.471  0.0918 -0.0085  0.2280
 9649SOL    HW130388   7.476   2.269   9.513  0.6633  0.1028 -0.3835
 9649SOL    HW230389   7.476   2.395   9.429 -0.4406 -0.5878 -1.4588
 9650SOL     OW30390   2.144   7.280   8.566  0.7090  0.1630 -0.3412
 9650SOL    HW130391   2.104   7.349   8.617 -0.8321 -0.5417 -0.5526
 9650SOL    HW230392   2.117   7.298   8.476 -1.0088 -1.5090 -0.2261
 9651SOL     OW30393   1.135   1.855   6.190  0.7241 -0.1827  0.0310
 9651SOL    HW130394   1.055   1.882   6.235 -0.8332 -0.4337 -2.3788
 9651SOL    HW230395   1.133   1.759   6.194 -0.3547 -0.2978 -1.8884
 9652SOL     OW30396   4.031   7.380   8.825  0.2239 -0.0598  0.3389
 9652SOL    HW130397   4.125   7.396   8.820  0.4250 -0.9442  1.0552
 9652SOL    HW230398   3.993   7.439   8.759  1.3784 -0.5666 -0.8270
 9653SOL     OW30399   3.677   3.048   7.486  0.6437  0.5648 -0.5472
 9653SOL    HW130400   3.703   3.121   7.541 -2.4435  1.0730  0.4278
 9653SOL    HW230401   3.671   3.084   7.398  1.2556  0.9074 -0.4489
 9654SOL     OW30402   1.496   5.820   5.513  0.2924 -0.4220 -0.4782
 9654SOL    HW130403   1.565   5.823   5.447 -1.0193 -0.3966 -1.8769
 9654SOL    HW230404   1.470   5.728   5.517 -1.2250 -0.0925 -1.7411
 9655SOL     OW30405   6.859   5.702   3.066 -0.5628  0.1933 -0.1387
 9655SOL    HW130406   6.863   5.784   3.115  1.3871  0.2052 -0.2626
 9655SOL    HW230407   6.812   5.724   2.986  0.4424  1.3308 -0.4262
 9656SOL     OW30408   1.709   0.547   7.524 -0.2005 -0.2718  0.1948
 9656SOL    HW130409   1.786   0.578   7.476 -0.2428  2.8179  1.8579
 9656SOL    HW230410   1.732   0.459   7.552  2.8589  0.6174  0.8155
 9657SOL     OW30411   7.574   0.129   2.978  0.4235  0.2389 -0.3451
 9657SOL    HW130412   7.553   0.038   2.998  0.8146  0.4716  1.2156
 9657SOL    HW230413   7.494   0.163   2.936 -0.2541 -0.4325  0.3668
 9658SOL     OW30414   0.888   3.428  11.549 -0.5450  0.3591  0.3001
 9658SOL    HW130415   0.977   3.408  11.521  0.2357  2.1401  1.3374
 9658SOL    HW230416   0.889   3.414  11.644 -0.9495  1.7389  0.5296
 9659SOL     OW30417   5.514   2.645   7.521 -0.5609  0.2182 -0.3926
 9659SOL    HW130418   5.603   2.671   7.543 -0.6998 -0.0195  0.4819
 9659SOL    HW230419   5.472   2.727   7.492 -0.4549  0.6194  0.5402
 9660SOL     OW30420   7.110   3.587   5.505 -0.2639 -0.2051  0.1749
 9660SOL    HW130421   7.080   3.608   5.594  0.3464 -1.8455  0.8073
 9660SOL    HW230422   7.043   3.625   5.448 -0.1177  1.8233  1.2592
 9661SOL     OW30423   4.398   7.618   9.058 -0.5085  0.4588 -0.2492
 9661SOL    HW130424   4.425   7.542   9.007 -0.7017  0.1306  0.1229
 9661SOL    HW230425   4.316   7.591   9.099 -0.1141  0.5302  0.6211
 9662SOL     OW30426   6.848   0.912   8.508 -0.1145 -0.1473 -0.7063
 9662SOL    HW130427   6.837   0.986   8.568 -0.3564 -0.3031 -0.5543
 9662SOL    HW230428   6.880   0.951   8.427 -0.2451  0.1245 -0.6284
 9663SOL     OW30429   5.692   0.710   2.940  0.0565 -0.6502 -0.3539
 9663SOL    HW130430   5.624   0.675   2.882  1.4066 -0.2554 -2.3098
 9663SOL    HW230431   5.736   0.777   2.887  1.2927 -0.1881  1.1942
 9664SOL     OW30432   6.873   1.880   6.529  0.1369 -0.1175  0.1406
 9664SOL    HW130433   6.785   1.916   6.521  0.5109  0.7379 -0.1722
 9664SOL    HW230434   6.911   1.925   6.605  0.9050  0.7902 -0.7657
 9665SOL     OW30435   2.442   5.380  11.311  0.1847 -0.5481 -0.0050
 9665SOL    HW130436   2.489   5.345  11.235  0.5867  2.6315 -1.3796
 9665SOL    HW230437   2.350   5.384  11.282 -0.1226 -1.7694  0.7145
 9666SOL     OW30438   3.251   2.155   1.875  0.5370  0.0726 -0.0677
 9666SOL    HW130439   3.319   2.195   1.821  0.1745  0.3463 -0.3221
 9666SOL    HW230440   3.220   2.226   1.931 -0.9276  0.4717 -1.3303
 9667SOL     OW30441   7.639   0.320   8.798 -0.2582 -0.3659  0.0690
 9667SOL    HW130442   7.627   0.226   8.782 -1.7530 -0.3789  1.0351
 9667SOL    HW230443   7.641   0.328   8.893 -2.1229  0.7483  0.0730
 9668SOL     OW30444   7.883   5.722   3.503  0.0600  0.0678 -0.2959
 9668SOL    HW130445   7.866   5.812   3.531  0.7842 -0.0122  0.4077
 9668SOL    HW230446   7.817   5.706   3.435 -2.1247  0.0774  1.6771
 9669SOL     OW30447   4.814   1.467   1.143  0.1706  0.1649 -0.3062
 9669SOL    HW130448   4.831   1.502   1.230 -0.2827  0.8590 -0.4861
 9669SOL    HW230449   4.900   1.439   1.111  0.0978 -1.6779  1.0121
 9670SOL     OW30450   7.581   0.183   7.438 -0.6849  0.0561  0.7759
 9670SOL    HW130451   7.657   0.143   7.481 -0.5918  0.4095  0.9438
 9670SOL    HW230452   7.615   0.213   7.353  0.0659  2.5735  1.8583
 9671SOL     OW30453   0.649   1.087   8.544 -0.5669  0.4088 -0.0563
 9671SOL    HW130454   0.599   1.021   8.498  0.4448 -0.6499  0.3117
 9671SOL    HW230455   0.630   1.072   8.637  0.3197  0.0579  0.0832
 9672SOL     OW30456   6.876   0.082  11.191  0.3727 -0.7656 -0.7923
 9672SOL    HW130457   6.913   0.003  11.153  0.1555 -1.5574  0.5648
 9672SOL    HW230458   6.784   0.061  11.207  0.8429 -1.2034  1.8779
 9673SOL     OW30459   4.191   0.578   2.223 -0.1037 -0.5443  0.2359
 9673SOL    HW130460   4.270   0.536   2.188 -0.4074 -1.4647  0.6303
 9673SOL    HW230461   4.222   0.629   2.298  0.2375 -0.2274 -0.1156
 9674SOL     OW30462   2.196   6.893  11.605 -0.5854 -0.6713  0.3050
 9674SOL    HW130463   2.248   6.967  11.638 -0.0820 -1.3360  1.0362
 9674SOL    HW230464   2.113   6.900  11.652  0.0225 -1.4406  1.5401
 9675SOL     OW30465   5.874   3.071   1.880 -0.1571  0.2419 -0.0315
 9675SOL    HW130466   5.787   3.068   1.841 -0.7818 -0.9427  1.3495
 9675SOL    HW230467   5.925   3.008   1.830 -1.2532 -2.0913  1.6004
 9676SOL     OW30468   2.708   1.034   8.436 -0.0173  0.4062  0.3031
 9676SOL    HW130469   2.769   0.967   8.467  1.3038  0.0098 -2.7457
 9676SOL    HW230470   2.628   0.986   8.415  0.2719  0.0789 -0.0800
 9677SOL     OW30471   2.286   3.845   5.368 -0.6248  0.2658 -0.1834
 9677SOL    HW130472   2.316   3.924   5.414  0.0727 -0.5049  0.7349
 9677SOL    HW230473   2.216   3.810   5.424 -0.4116 -0.1695 -0.1822
 9678SOL     OW30474   6.286   6.009   2.477 -0.0985 -0.8441  0.4804
 9678SOL    HW130475   6.230   6.059   2.418  1.1914 -0.5036 -0.4957
 9678SOL    HW230476   6.272   5.917   2.453 -0.2374 -0.7639  0.2574
 9679SOL     OW30477   0.264   4.528   5.783 -0.0950  0.7450  0.6203
 9679SOL    HW130478   0.236   4.611   5.823 -0.2911  0.9400  0.0982
 9679SOL    HW230479   0.221   4.461   5.836 -2.0899  1.0563 -0.5131
 9680SOL     OW30480   0.485   5.244  10.448  0.0053 -0.1937  0.2687
 9680SOL    HW130481   0.418   5.198  10.499 -0.0297  0.6486  0.9965
 9680SOL    HW230482   0.543   5.174  10.417 -0.5446 -0.8138  0.6106
 9681SOL     OW30483   1.108   6.532   5.348  0.5494 -0.0472  0.4733
 9681SOL    HW130484   1.117   6.612   5.296 -0.2590 -0.1600  0.1366
 9681SOL    HW230485   1.038   6.553   5.410  1.0724 -0.1324  1.1016
 9682SOL     OW30486   2.939   0.352   2.210 -0.1022 -0.7066 -0.3840
 9682SOL    HW130487   2.852   0.393   2.203  0.9465  1.9461  0.7070
 9682SOL    HW230488   2.958   0.355   2.304  1.2241 -1.1211 -0.6277
 9683SOL     OW30489   1.068   6.001   2.773  0.3278  0.3863 -0.4415
 9683SOL    HW130490   1.030   5.915   2.755  0.2317  0.2394  0.3996
 9683SOL    HW230491   1.008   6.063   2.732 -0.3828  0.1130  0.1518
 9684SOL     OW30492   2.556   0.300  11.063  0.1217  0.4596  0.3950
 9684SOL    HW130493   2.637   0.262  11.097  0.0391  1.3378  1.6501
 9684SOL    HW230494   2.532   0.244  10.989  1.7525  0.0689  0.1296
 9685SOL     OW30495   6.865   6.291   0.884  0.5560 -0.3464 -0.2197
 9685SOL    HW130496   6.960   6.300   0.888  0.6237 -0.8824 -0.4825
 9685SOL    HW230497   6.846   6.293   0.790  0.2836 -0.0505 -0.1609
 9686SOL     OW30498   2.914   1.581  11.961  0.2044  0.4904  0.1832
 9686SOL    HW130499   2.823   1.563  11.982  0.5105 -0.7438  0.5041
 9686SOL    HW230500   2.927   1.545  11.873 -0.2493  2.8937 -0.9455
 9687SOL     OW30501   3.348   7.544   5.241 -0.1540 -0.0536  0.1465
 9687SOL    HW130502   3.336   7.497   5.323 -0.0226 -0.4618 -0.0646
 9687SOL    HW230503   3.442   7.536   5.222  0.3800  2.3666  1.3421
 9688SOL     OW30504   0.333   1.266  10.637 -0.1946  0.3472 -0.0863
 9688SOL    HW130505   0.423   1.298  10.639  0.1934 -0.6632 -1.0002
 9688SOL    HW230506   0.337   1.183  10.591 -1.6457  0.4149 -0.3920
 9689SOL     OW30507   4.944   2.569   5.156  0.1002 -0.3225 -0.0744
 9689SOL    HW130508   4.892   2.640   5.118  1.3245  0.2476 -0.7307
 9689SOL    HW230509   4.887   2.493   5.151 -0.6311  0.2586 -0.8807
 9690SOL     OW30510   4.729   2.136   2.200 -0.2864 -0.1598 -0.3434
 9690SOL    HW130511   4.807   2.120   2.145  1.3361  1.8195  1.1951
 9690SOL    HW230512   4.743   2.082   2.277 -0.4883  0.1374 -0.1001
 9691SOL     OW30513   6.968   2.668   1.335 -0.0985  0.0270 -0.4574
 9691SOL    HW130514   6.926   2.619   1.264 -1.1833  0.8707 -0.4237
 9691SOL    HW230515   6.919   2.750   1.340 -0.3714 -0.1934  1.5728
 9692SOL     OW30516   7.587   0.985  10.676  0.4802  0.3630 -0.0067
 9692SOL    HW130517   7.520   0.966  10.742  0.9001  1.5979  0.7922
 9692SOL    HW230518   7.552   1.059  10.627  0.8682  0.4429 -0.1659
 9693SOL     OW30519   7.119   2.184   8.656  0.1135 -0.3650  0.2797
 9693SOL    HW130520   7.201   2.213   8.695  1.4997 -2.0224 -1.1736
 9693SOL    HW230521   7.077   2.264   8.625  1.7429  0.4664  0.0913
 9694SOL     OW30522   1.029   3.086   0.708 -0.6031  0.1005 -0.0943
 9694SOL    HW130523   1.023   3.001   0.664 -1.0276 -0.4082  0.9208
 9694SOL    HW230524   1.008   3.149   0.639 -0.9138 -0.6549 -0.7160
 9695SOL     OW30525   0.724   5.775   7.574  0.0387 -0.5489  0.2985
 9695SOL    HW130526   0.634   5.788   7.544  0.2730  1.1548  0.2221
 9695SOL    HW230527   0.728   5.824   7.657  1.0365 -0.1501  0.0248
 9696SOL     OW30528   7.176   7.472   2.638 -0.0390 -0.5235 -0.5522
 9696SOL    HW130529   7.111   7.533   2.675  0.4273  0.0855 -0.7238
 9696SOL    HW230530   7.259   7.517   2.648  0.2886 -1.0418 -0.9054
 9697SOL     OW30531   2.574   0.816   9.558 -0.2918 -0.6938 -0.0430
 9697SOL    HW130532   2.490   0.860   9.568  0.8666  1.7727 -0.5201
 9697SOL    HW230533   2.619   0.865   9.489  1.2145 -2.5028 -0.4419
 9698SOL     OW30534   2.944   1.915   7.647  0.1187  0.1068 -0.0064
 9698SOL    HW130535   2.914   1.872   7.727  2.1082 -0.3770  0.5468
 9698SOL    HW230536   2.919   1.856   7.576  1.0406 -1.0108  0.5683
 9699SOL     OW30537   5.706   5.247  11.879  0.4145 -0.4565  0.4091
 9699SOL    HW130538   5.801   5.246  11.868  0.3161 -1.1635 -0.4448
 9699SOL    HW230539   5.676   5.164  11.842 -0.2042 -1.9777  3.8930
 9700SOL     OW30540   0.076   3.831   2.262  0.1993 -0.0239  0.0910
 9700SOL    HW130541   0.054   3.860   2.174 -0.1613  1.3766  0.6130
 9700SOL    HW230542   0.081   3.912   2.313 -0.0582 -0.8425  1.4548
 9701SOL     OW30543   7.563   0.572  12.263  0.2008  0.0670 -0.4139
 9701SOL    HW130544   7.531   0.507  12.325 -1.0339 -0.0024 -1.0849
 9701SOL    HW230545   7.484   0.605  12.221  0.7287  2.5012  0.3656
 9702SOL     OW30546   2.859   4.948  11.487  0.2979 -0.0653 -0.3909
 9702SOL    HW130547   2.840   4.860  11.454 -0.4874  0.5317 -1.6009
 9702SOL    HW230548   2.804   4.957  11.565  0.4092 -0.6608 -0.2426
 9703SOL     OW30549   3.004   0.493   7.464 -0.3690 -0.0050 -0.3539
 9703SOL    HW130550   3.008   0.451   7.550  0.8122 -0.6288 -0.6879
 9703SOL    HW230551   3.048   0.577   7.477 -1.9972  0.7977  0.1179
 9704SOL     OW30552   6.433   0.442   5.845 -0.2418 -0.6601  0.0676
 9704SOL    HW130553   6.467   0.359   5.877  0.5059 -0.4719 -0.2270
 9704SOL    HW230554   6.416   0.493   5.924 -1.0885 -1.2327  0.2657
 9705SOL     OW30555   5.571   7.519   4.839 -0.3564 -0.5385  0.2841
 9705SOL    HW130556   5.514   7.456   4.884  0.7469 -1.5030  0.3919
 9705SOL    HW230557   5.511   7.586   4.806 -1.4455 -1.0325  1.1683
 9706SOL     OW30558   0.234   7.545  11.502  0.4672  0.3687  0.4471
 9706SOL    HW130559   0.203   7.470  11.452  1.5267 -0.1906  0.5982
 9706SOL    HW230560   0.191   7.620  11.462  0.8092 -0.1223 -0.9084
 9707SOL     OW30561   4.854   7.763   3.135 -0.0533  0.5679 -0.4065
 9707SOL    HW130562   4.856   7.682   3.186 -1.3495  0.2789 -0.7623
 9707SOL    HW230563   4.839   7.832   3.199  1.5966  0.6069 -0.0386
 9708SOL     OW30564   2.107   1.302  11.099  0.0035  0.1316  0.3718
 9708SOL    HW130565   2.101   1.302  11.003 -0.6562 -1.7568  0.3741
 9708SOL    HW230566   2.183   1.247  11.118  0.9661  1.5992  0.9380
 9709SOL     OW30567   4.765   5.313   6.827  0.2742  0.2133 -0.5560
 9709SOL    HW130568   4.785   5.337   6.736  0.9598 -0.5981 -0.6302
 9709SOL    HW230569   4.669   5.304   6.829  0.0142  2.3884 -0.6406
 9710SOL     OW30570   5.972   5.822   7.931 -0.4624  0.2471 -0.1017
 9710SOL    HW130571   6.041   5.777   7.883  0.2558  0.7610  0.4345
 9710SOL    HW230572   5.891   5.777   7.905  0.0784 -0.4228 -0.6527
 9711SOL     OW30573   2.180   6.005   1.269  0.0406  0.2223 -0.4591
 9711SOL    HW130574   2.128   5.931   1.236  1.6148 -0.1937 -2.1758
 9711SOL    HW230575   2.266   5.967   1.288  0.4612  1.3534 -0.0307
 9712SOL     OW30576   1.253   6.391   1.900 -0.2433  0.5995 -0.4792
 9712SOL    HW130577   1.205   6.431   1.827  0.5751  0.5412 -1.0612
 9712SOL    HW230578   1.331   6.353   1.859 -0.1481 -0.0780  0.3250
 9713SOL     OW30579   1.498   0.681   0.431 -0.0560 -0.3257  0.5245
 9713SOL    HW130580   1.436   0.608   0.437  0.0069 -0.2903  1.8338
 9713SOL    HW230581   1.549   0.675   0.512  1.7377 -0.4198 -0.5703
 9714SOL     OW30582   1.163   1.438  11.464 -0.6720 -0.0690 -0.4730
 9714SOL    HW130583   1.152   1.361  11.520 -2.0164  0.6670  0.3257
 9714SOL    HW230584   1.186   1.403  11.378  0.8155 -1.2616  0.3573
 9715SOL     OW30585   7.031   3.961   4.096 -0.3678  0.5056 -0.1593
 9715SOL    HW130586   7.084   3.889   4.129  1.2413  2.5023  1.9598
 9715SOL    HW230587   6.962   3.972   4.162  1.8743  3.4237  2.0362
 9716SOL     OW30588   0.616   0.063  10.687  0.1146  0.0080 -0.0936
 9716SOL    HW130589   0.675  -0.013  10.680  1.4539  1.0493 -0.4278
 9716SOL    HW230590   0.572   0.050  10.771 -0.6760 -1.8102 -0.7370
 9717SOL     OW30591   6.124   7.772   5.081 -0.2287  0.2511 -0.0535
 9717SOL    HW130592   6.070   7.847   5.055 -1.1215  0.6056  2.5530
 9717SOL    HW230593   6.175   7.752   5.003 -1.7714  1.9780 -1.6173
 9718SOL     OW30594   6.632   3.711   8.408  0.4577  0.5019  0.4113
 9718SOL    HW130595   6.607   3.679   8.495 -0.3998 -0.5802 -0.2106
 9718SOL    HW230596   6.724   3.685   8.399 -0.4261 -2.8977 -0.4472
 9719SOL     OW30597   3.457   0.849   8.004  0.5355  0.3653 -0.1142
 9719SOL    HW130598   3.411   0.932   8.022 -0.9584 -0.5500  0.5472
 9719SOL    HW230599   3.439   0.796   8.082  0.8489 -0.8282 -0.8432
 9720SOL     OW30600   6.690   5.901   6.373 -0.3869 -0.0328 -0.4627
 9720SOL    HW130601   6.773   5.859   6.353 -0.3369  0.3564 -1.0897
 9720SOL    HW230602   6.706   5.949   6.454 -0.2642 -0.6769 -0.0902
 9721SOL     OW30603   7.739   3.157   6.776  0.2793 -0.3080 -0.3509
 9721SOL    HW130604   7.702   3.083   6.824  0.4448 -0.1922 -0.0460
 9721SOL    HW230605   7.663   3.204   6.743  0.1417  0.0833  0.5077
 9722SOL     OW30606   5.381   4.348   4.459 -0.1277 -0.0362  0.7674
 9722SOL    HW130607   5.300   4.299   4.443  0.6298 -1.8922  2.1706
 9722SOL    HW230608   5.354   4.440   4.458 -1.7099 -0.4415 -1.5504
 9723SOL     OW30609   0.483   2.002   1.952 -0.0309 -0.1527  0.0474
 9723SOL    HW130610   0.522   2.085   1.928  1.1343 -0.1931  1.6072
 9723SOL    HW230611   0.390   2.011   1.930 -0.0657  1.8313  0.8122
 9724SOL     OW30612   6.326   5.885   9.163 -0.0027 -0.2936 -0.1543
 9724SOL    HW130613   6.297   5.974   9.142  0.7005 -0.0407 -0.0781
 9724SOL    HW230614   6.338   5.843   9.078  2.2480  0.5363 -0.3212
 9725SOL     OW30615   1.518   4.242   1.180  0.7756 -0.9920 -0.0474
 9725SOL    HW130616   1.531   4.336   1.167  2.3831 -1.3316 -1.2614
 9725SOL    HW230617   1.583   4.218   1.245 -1.1138 -0.9405  1.9814
 9726SOL     OW30618   7.022   6.422   8.092  0.1631 -0.3094  0.4017
 9726SOL    HW130619   6.991   6.385   8.009 -0.3793 -0.0788  0.4919
 9726SOL    HW230620   7.112   6.393   8.100  0.1101 -0.6193 -0.1055
 9727SOL     OW30621   0.881   4.561   2.353  0.0626  0.1378 -0.0237
 9727SOL    HW130622   0.798   4.530   2.388  0.5338 -1.0434  0.1070
 9727SOL    HW230623   0.895   4.507   2.275  1.1491 -0.3579  0.4929
 9728SOL     OW30624   5.623   5.587   2.423  0.0732 -0.8741 -0.0933
 9728SOL    HW130625   5.545   5.580   2.368 -0.3163  0.7590  0.1901
 9728SOL    HW230626   5.663   5.500   2.420 -1.1254 -1.4166 -1.1760
 9729SOL     OW30627   1.652   1.820   7.739  0.1496  0.0706 -0.0181
 9729SOL    HW130628   1.700   1.774   7.808  0.8332  0.6365 -0.1127
 9729SOL    HW230629   1.706   1.896   7.717  0.0211 -0.1697 -1.2781
 9730SOL     OW30630   7.673   2.614   7.474  0.5638 -0.0491  0.0692
 9730SOL    HW130631   7.663   2.691   7.418 -1.2489  1.1157  1.8575
 9730SOL    HW230632   7.584   2.582   7.488  1.0782 -1.0691  1.2461
 9731SOL     OW30633   7.560   6.180   9.778  0.3745 -0.5330 -0.6301
 9731SOL    HW130634   7.474   6.147   9.803 -0.0463  0.2112 -1.0468
 9731SOL    HW230635   7.621   6.109   9.800 -0.3101 -0.9634 -0.0937
 9732SOL     OW30636   7.427   3.050  11.348  0.2173  0.0826 -0.2784
 9732SOL    HW130637   7.433   2.956  11.336 -1.6919 -0.0459 -0.5712
 9732SOL    HW230638   7.506   3.085  11.307  0.7135 -1.3388 -0.5917
 9733SOL     OW30639   0.578   3.360  10.476 -0.2287 -0.9067 -0.0773
 9733SOL    HW130640   0.499   3.368  10.530 -0.0253 -0.7472  0.2035
 9733SOL    HW230641   0.635   3.303  10.528  0.4342  0.1927  0.4355
 9734SOL     OW30642   3.138   5.719   6.216  0.0676 -0.2187 -0.0877
 9734SOL    HW130643   3.142   5.624   6.202  0.6420 -0.2109 -0.0101
 9734SOL    HW230644   3.069   5.749   6.158  0.5904 -0.5458 -0.8903
 9735SOL     OW30645   4.975   2.704   3.363  0.1749  0.3602 -0.3487
 9735SOL    HW130646   4.906   2.639   3.378  0.5886  0.0751  0.4233
 9735SOL    HW230647   4.935   2.769   3.306 -0.0685 -0.8690 -1.6487
 9736SOL     OW30648   6.753   0.393   6.724 -0.5132 -0.0265 -0.1369
 9736SOL    HW130649   6.830   0.436   6.762 -1.3451 -0.2388  1.9482
 9736SOL    HW230650   6.770   0.392   6.630  1.5676  0.8136  0.1681
 9737SOL     OW30651   6.083   4.322   7.467  0.2173 -0.3483 -0.3190
 9737SOL    HW130652   6.101   4.375   7.545 -1.4876  0.5798 -0.4961
 9737SOL    HW230653   6.167   4.286   7.442  1.1087  0.7732  0.9396
 9738SOL     OW30654   0.753   1.263   0.352  0.2495 -0.3102  0.3200
 9738SOL    HW130655   0.689   1.279   0.283  0.9000  1.0264 -0.0006
 9738SOL    HW230656   0.733   1.174   0.383 -0.3969 -0.7257 -1.2041
 9739SOL     OW30657   6.763   7.458   6.203  0.3324  0.6378 -0.2759
 9739SOL    HW130658   6.830   7.411   6.254 -1.8984 -1.2365  1.1757
 9739SOL    HW230659   6.775   7.550   6.227  2.6937  0.4698 -0.5273
 9740SOL     OW30660   2.318   2.265   4.090  0.2340 -0.1074 -0.1648
 9740SOL    HW130661   2.261   2.285   4.164  0.5486  0.3633 -0.0427
 9740SOL    HW230662   2.396   2.226   4.130  0.8071  1.0076 -0.1511
 9741SOL     OW30663   0.543   2.097   2.396  0.2274  0.2279  0.4371
 9741SOL    HW130664   0.587   2.063   2.318  2.0090 -0.6983  1.7695
 9741SOL    HW230665   0.603   2.077   2.468 -2.2612 -0.7814  2.3536
 9742SOL     OW30666   0.860   7.119   2.934  0.4221 -0.0669 -0.1286
 9742SOL    HW130667   0.795   7.188   2.922  0.6653  0.5723  1.8086
 9742SOL    HW230668   0.942   7.157   2.904  0.5350  0.5012  0.8322
 9743SOL     OW30669   3.522   5.077  11.773 -0.3099  0.5089  0.1573
 9743SOL    HW130670   3.525   5.171  11.793  0.5247  0.3610  0.7669
 9743SOL    HW230671   3.439   5.048  11.811 -1.7808  1.4435 -2.1521
 9744SOL     OW30672   7.820   6.181   6.977 -0.5079  0.3469  0.1440
 9744SOL    HW130673   7.773   6.098   6.963  0.1674  0.2022 -1.4863
 9744SOL    HW230674   7.784   6.240   6.911  1.5981  0.2008 -1.2356
 9745SOL     OW30675   3.845   7.786   1.590 -0.1818 -0.2897  0.1510
 9745SOL    HW130676   3.867   7.874   1.562 -2.5458  0.4555  0.4011
 9745SOL    HW230677   3.842   7.735   1.508 -0.6584  0.3155 -0.2170
 9746SOL     OW30678   1.201   0.767  10.014  0.2791 -0.1009  0.1497
 9746SOL    HW130679   1.172   0.844   9.965 -0.2242 -1.4262 -1.7147
 9746SOL    HW230680   1.292   0.788  10.038  0.5285  0.6384 -1.2955
 9747SOL     OW30681   5.303   2.263   4.686 -0.1088  0.1404 -0.1534
 9747SOL    HW130682   5.222   2.213   4.685 -0.0300 -0.0736  1.6854
 9747SOL    HW230683   5.274   2.355   4.685 -0.3196  0.0747 -0.5965
 9748SOL     OW30684   2.642   0.348   4.264  0.0660 -0.6687  0.5479
 9748SOL    HW130685   2.722   0.298   4.276  1.3633  0.7777 -1.5344
 9748SOL    HW230686   2.632   0.356   4.169 -0.1587  2.7558  0.7293
 9749SOL     OW30687   5.838   3.480   6.264  0.5171 -0.3433 -0.3565
 9749SOL    HW130688   5.749   3.513   6.270 -0.5282 -2.9253  0.0046
 9749SOL    HW230689   5.872   3.485   6.354  0.0536 -0.9878 -0.1360
 9750SOL     OW30690   4.309   5.396   8.526  0.3746  0.7776 -0.8369
 9750SOL    HW130691   4.285   5.348   8.605 -0.1167  0.9461 -0.8813
 9750SOL    HW230692   4.360   5.471   8.558  0.1013  0.8941 -0.6721
 9751SOL     OW30693   2.623   1.823   9.602 -0.2589 -0.2592  0.6973
 9751SOL    HW130694   2.531   1.801   9.616  0.0074 -0.4702  2.2765
 9751SOL    HW230695   2.670   1.742   9.620  0.2006 -0.3715 -0.8908
 9752SOL     OW30696   3.452   1.725   7.094 -0.9070  0.0983 -0.3139
 9752SOL    HW130697   3.486   1.714   7.005 -0.4587  0.2342 -0.1594
 9752SOL    HW230698   3.529   1.722   7.150 -0.9901  1.7588 -0.0708
 9753SOL     OW30699   6.734   7.447  10.839  0.6914 -0.0037 -0.2666
 9753SOL    HW130700   6.737   7.532  10.883 -0.0456 -1.0886  2.0453
 9753SOL    HW230701   6.656   7.405  10.874  1.6512 -2.0710 -0.4829
 9754SOL     OW30702   2.431   5.650   9.170  0.3173  0.2624  0.0451
 9754SOL    HW130703   2.350   5.698   9.186 -0.0522 -0.0609 -0.8085
 9754SOL    HW230704   2.477   5.652   9.255 -0.9756 -0.3015  0.7904
 9755SOL     OW30705   2.161   1.657   5.842 -0.2158  0.3902  0.1532
 9755SOL    HW130706   2.122   1.629   5.760  1.0045 -1.9661  0.2932
 9755SOL    HW230707   2.217   1.731   5.819 -2.0955  1.6531 -0.5821
 9756SOL     OW30708   6.127   3.960   6.810  0.1526 -0.2815  0.3707
 9756SOL    HW130709   6.174   3.913   6.741 -1.2079 -0.6030 -0.3757
 9756SOL    HW230710   6.121   4.050   6.778  0.0424 -0.3024  0.3287
 9757SOL     OW30711   7.063   2.048   7.624 -0.1964  0.2456 -0.1685
 9757SOL    HW130712   7.057   2.128   7.676 -0.1370  1.1741 -1.5640
 9757SOL    HW230713   7.081   1.980   7.689 -2.3134  0.9849  1.3184
 9758SOL     OW30714   4.026   2.091   0.587 -0.3162  0.1652 -0.0569
 9758SOL    HW130715   4.061   2.175   0.558 -1.0394 -0.6768 -3.8301
 9758SOL    HW230716   4.095   2.028   0.567  0.0664 -0.3177  2.3837
 9759SOL     OW30717   2.224   1.868   2.302  0.4234  0.5519  0.0828
 9759SOL    HW130718   2.204   1.931   2.371  1.4698  2.2454 -1.0815
 9759SOL    HW230719   2.288   1.913   2.246  0.0053 -0.9346 -1.6992
 9760SOL     OW30720   4.499   3.030  11.636  0.2928  0.9951 -0.0887
 9760SOL    HW130721   4.561   3.014  11.708 -0.3325  1.7638  0.6454
 9760SOL    HW230722   4.536   2.984  11.562 -0.1832 -1.7868  1.2783
 9761SOL     OW30723   6.242   6.246   0.056 -0.0508  0.0273  0.0499
 9761SOL    HW130724   6.182   6.224  -0.015 -1.3802  1.0016  0.8272
 9761SOL    HW230725   6.211   6.330   0.089  0.7789 -0.1978  1.5057
 9762SOL     OW30726   3.756   0.247  11.864 -0.1693 -0.1229 -0.1373
 9762SOL    HW130727   3.733   0.326  11.912 -0.8072  0.1521 -0.8757
 9762SOL    HW230728   3.796   0.279  11.783 -0.3742 -0.5479 -0.4121
 9763SOL     OW30729   5.969   7.807   5.705 -0.1523 -0.4262 -0.0771
 9763SOL    HW130730   5.880   7.775   5.722 -0.1238 -0.0327  0.8562
 9763SOL    HW230731   5.972   7.818   5.610 -2.1969  2.5832  0.0761
 9764SOL     OW30732   7.055   7.517   0.791 -0.2740 -1.1126 -0.2989
 9764SOL    HW130733   6.965   7.550   0.799 -0.6096 -1.6997 -1.3811
 9764SOL    HW230734   7.086   7.508   0.881 -1.4895 -1.3711  0.1118
 9765SOL     OW30735   7.790   1.498   6.823 -0.1697 -0.1294  0.3346
 9765SOL    HW130736   7.777   1.506   6.917  0.5250 -1.2739  0.5481
 9765SOL    HW230737   7.884   1.514   6.810 -0.4276  1.0217 -0.3022
 9766SOL     OW30738   5.293   0.403   9.479 -0.3927 -0.0744  0.3742
 9766SOL    HW130739   5.282   0.404   9.574 -1.7713 -0.0304  0.2427
 9766SOL    HW230740   5.383   0.373   9.465  0.0652  0.5977  1.6973
 9767SOL     OW30741   4.241   3.661   4.909  0.8263 -0.3255  0.0160
 9767SOL    HW130742   4.179   3.719   4.866  1.6808  0.9953  0.5072
 9767SOL    HW230743   4.190   3.619   4.979  0.0829 -0.5494 -0.6499
 9768SOL     OW30744   6.416   3.045   1.294 -0.2461 -0.1841 -0.2014
 9768SOL    HW130745   6.427   3.118   1.355  0.4111 -1.6528  1.5353
 9768SOL    HW230746   6.322   3.044   1.275 -0.4158  0.5087  0.5164
 9769SOL     OW30747   3.660   2.618   9.188  0.0891 -0.0889  0.7047
 9769SOL    HW130748   3.604   2.682   9.232 -1.2273 -0.6015 -0.1386
 9769SOL    HW230749   3.748   2.655   9.192 -0.4238  1.1051  1.4319
 9770SOL     OW30750   0.864   6.099   0.084  0.3089 -0.2745  0.6572
 9770SOL    HW130751   0.807   6.153   0.029 -1.0120 -2.1387  0.0821
 9770SOL    HW230752   0.940   6.080   0.028 -0.2587 -0.7987  0.0436
 9771SOL     OW30753   7.592   7.021   5.234  0.4990 -0.3389 -0.1868
 9771SOL    HW130754   7.569   7.082   5.304 -1.4092  1.0452 -1.9028
 9771SOL    HW230755   7.551   6.938   5.260 -2.9401  0.9461 -1.0089
 9772SOL     OW30756   0.047   1.718   0.096  0.3006  0.4206  0.4706
 9772SOL    HW130757   0.100   1.756   0.026  0.9395  1.6074  1.5359
 9772SOL    HW230758   0.064   1.624   0.091 -0.4196  0.3532 -1.5282
 9773SOL     OW30759   1.353   6.773   8.182 -0.6792 -0.5275  0.4257
 9773SOL    HW130760   1.331   6.866   8.170 -0.9263 -0.6950 -0.5640
 9773SOL    HW230761   1.281   6.739   8.235  0.1751  0.1469  2.0911
 9774SOL     OW30762   1.603   4.906   1.807  0.7939  0.1049 -0.3335
 9774SOL    HW130763   1.619   4.992   1.846  1.5081  0.4520 -1.3428
 9774SOL    HW230764   1.655   4.846   1.860 -1.0741 -0.0239  1.4884
 9775SOL     OW30765   3.031   7.939   8.673  0.4276  0.2645 -0.3878
 9775SOL    HW130766   2.956   7.918   8.616  0.7908 -1.1433 -0.3899
 9775SOL    HW230767   3.107   7.913   8.622  0.7675 -0.8602  0.6573
 9776SOL     OW30768   6.432   5.139   2.904  0.1287  0.2118 -0.6212
 9776SOL    HW130769   6.518   5.176   2.883 -0.0879  1.7411  0.9107
 9776SOL    HW230770   6.371   5.212   2.892 -0.6201 -0.2020  0.4546
 9777SOL     OW30771   2.571   1.383   2.344 -0.0397 -0.0181  0.0552
 9777SOL    HW130772   2.664   1.387   2.365 -0.0316  1.6153 -0.1052
 9777SOL    HW230773   2.549   1.473   2.319 -1.0352 -0.9234 -2.6660
 9778SOL     OW30774   1.202   3.184  11.740  0.7215  0.5208 -0.8899
 9778SOL    HW130775   1.173   3.193  11.831  0.7758  0.4179 -0.8619
 9778SOL    HW230776   1.277   3.242  11.733  0.4599  0.8484 -0.9847
 9779SOL     OW30777   2.872   0.243   2.480 -0.4300 -0.4845  0.3637
 9779SOL    HW130778   2.958   0.204   2.498 -0.5020 -1.9079 -1.8782
 9779SOL    HW230779   2.851   0.293   2.559  1.6493 -1.5368  1.6879
 9780SOL     OW30780   5.664   6.404  11.776  0.2401  0.3793  0.1953
 9780SOL    HW130781   5.696   6.476  11.722 -0.1605 -0.2027 -0.8447
 9780SOL    HW230782   5.627   6.447  11.853  0.1060  1.2789 -0.3518
 9781SOL     OW30783   4.201   5.628   2.307 -0.8800  0.4412  0.2483
 9781SOL    HW130784   4.162   5.545   2.278 -2.1829  0.8651  0.7332
 9781SOL    HW230785   4.245   5.606   2.389  0.1353 -0.0889 -0.4141
 9782SOL     OW30786   1.542   0.046   1.550 -0.4680  0.3475 -0.0074
 9782SOL    HW130787   1.472  -0.019   1.543 -1.1175  1.0122  0.1640
 9782SOL    HW230788   1.498   0.126   1.579  0.5796  0.4215  1.4566
 9783SOL     OW30789   3.675   5.523  12.277 -0.2038  0.1547  0.2511
 9783SOL    HW130790   3.722   5.586  12.332  0.3701  0.0205 -0.0712
 9783SOL    HW230791   3.673   5.443  12.330 -0.7972  0.3909  0.5975
 9784SOL     OW30792   1.624   5.328  11.045 -0.2483  0.2322 -0.4005
 9784SOL    HW130793   1.529   5.327  11.052 -0.2917  0.7679 -0.8028
 9784SOL    HW230794   1.655   5.365  11.127 -0.3620 -0.3597 -0.0879
 9785SOL     OW30795   6.571   7.384   9.892  0.4215  0.6228  0.1774
 9785SOL    HW130796   6.647   7.431   9.857 -0.1889  1.7604  0.3334
 9785SOL    HW230797   6.572   7.300   9.847  1.0751  1.1010 -0.7270
 9786SOL     OW30798   1.515   2.973   9.429 -0.2181  0.4073  0.0927
 9786SOL    HW130799   1.581   2.908   9.404  1.3931  1.6825  0.7887
 9786SOL    HW230800   1.553   3.016   9.506  0.5670  4.6170 -2.3379
 9787SOL     OW30801   4.557   4.557   2.013 -0.1981  0.4966  0.5859
 9787SOL    HW130802   4.520   4.477   2.051 -1.5269 -0.2546 -2.0779
 9787SOL    HW230803   4.484   4.619   2.011 -0.2951  0.3589 -1.0851
 9788SOL     OW30804   4.749   6.855   2.119  1.0109  0.5884  0.1897
 9788SOL    HW130805   4.748   6.784   2.055  1.3996  3.5586 -3.5297
 9788SOL    HW230806   4.657   6.873   2.137  0.7509  1.1212 -1.4668
 9789SOL     OW30807   1.430   1.659   6.674 -0.2287 -0.0552  0.1033
 9789SOL    HW130808   1.489   1.586   6.651 -0.1066 -0.1981  0.8224
 9789SOL    HW230809   1.347   1.616   6.695 -0.0312 -0.0347  0.9526
 9790SOL     OW30810   7.294   7.722  11.098 -0.5476  0.4094 -0.1957
 9790SOL    HW130811   7.297   7.642  11.045  0.0189  0.5130 -0.3280
 9790SOL    HW230812   7.386   7.746  11.109 -0.6089 -0.0513  1.5393
 9791SOL     OW30813   6.935   4.873   1.370  0.6342  1.1105 -0.4578
 9791SOL    HW130814   6.955   4.875   1.277 -1.3465  1.5007 -0.9179
 9791SOL    HW230815   6.854   4.923   1.379 -0.7787 -1.2325  1.0489
 9792SOL     OW30816   7.627   4.111   7.115 -0.5346  0.1766 -0.7009
 9792SOL    HW130817   7.718   4.139   7.105 -0.0743 -1.2072 -0.6258
 9792SOL    HW230818   7.631   4.042   7.182 -0.8580 -3.2851 -3.9096
 9793SOL     OW30819   0.591   1.344   9.786 -0.5723  0.3886  0.4632
 9793SOL    HW130820   0.600   1.438   9.768 -0.0176  0.1047 -0.8515
 9793SOL    HW230821   0.680   1.315   9.804 -0.4344 -0.2470 -1.1112
 9794SOL     OW30822   1.117   2.990   1.791  0.0806  0.2288  0.1580
 9794SOL    HW130823   1.116   3.080   1.758 -1.3785 -0.2820 -1.2867
 9794SOL    HW230824   1.188   2.947   1.743  0.3180  0.4105  0.3418
 9795SOL     OW30825   5.217   2.331   7.086  0.3809  0.5065  0.8606
 9795SOL    HW130826   5.213   2.244   7.125 -0.2051  0.3342  0.4287
 9795SOL    HW230827   5.220   2.391   7.162 -0.5319  0.1657  1.1840
 9796SOL     OW30828   5.564   3.436   8.832  0.0683 -0.7880 -0.0541
 9796SOL    HW130829   5.614   3.491   8.892 -0.8083 -0.3659  0.2931
 9796SOL    HW230830   5.549   3.491   8.755  0.4034 -1.0209 -0.2887
 9797SOL     OW30831   5.423   4.100   9.505 -0.0478  0.4439 -0.1608
 9797SOL    HW130832   5.454   4.172   9.451  1.5943  1.0883  1.5288
 9797SOL    HW230833   5.482   4.027   9.485 -0.5305  0.1314 -0.4853
 9798SOL     OW30834   6.414   7.224   0.628  0.1082  0.4722 -0.1564
 9798SOL    HW130835   6.427   7.134   0.598  1.6950  0.0022  1.7306
 9798SOL    HW230836   6.485   7.274   0.588  0.4866  0.4505  0.4884
 9799SOL     OW30837   7.480   6.572   8.036 -0.2298 -0.0221 -0.0511
 9799SOL    HW130838   7.542   6.508   8.071 -0.2748 -0.8963 -1.5063
 9799SOL    HW230839   7.507   6.655   8.076  1.1047 -0.6007  0.3137
 9800SOL     OW30840   6.657   2.759   9.693 -0.0660 -0.0297  0.3026
 9800SOL    HW130841   6.619   2.807   9.619 -0.0685  0.3823  0.5692
 9800SOL    HW230842   6.625   2.670   9.682 -2.1542  0.5552  1.2091
 9801SOL     OW30843   2.065   7.022   3.317 -0.1319  0.0047  0.6855
 9801SOL    HW130844   2.022   7.006   3.233 -0.0981 -0.7695  0.8130
 9801SOL    HW230845   2.124   6.948   3.328  0.7674  0.7232  0.8177
 9802SOL     OW30846   2.707   3.551   3.929 -0.0673  0.5062 -0.1531
 9802SOL    HW130847   2.761   3.627   3.949 -0.3405  0.7938 -0.5040
 9802SOL    HW230848   2.667   3.571   3.845 -0.1871 -0.0015 -0.2227
 9803SOL     OW30849   3.637   0.112   6.714  0.4855  0.6998  0.1539
 9803SOL    HW130850   3.725   0.081   6.738  0.4539 -0.4958 -1.1471
 9803SOL    HW230851   3.584   0.032   6.711 -1.5651  1.6207  4.1525
 9804SOL     OW30852   2.522   6.963   7.286 -0.4550  0.1461 -0.7430
 9804SOL    HW130853   2.456   7.007   7.338 -1.2658 -1.8757  0.0065
 9804SOL    HW230854   2.541   7.025   7.215 -1.5740  1.6408  0.1952
 9805SOL     OW30855   7.459   3.505   0.399  0.8524 -0.0431 -0.0214
 9805SOL    HW130856   7.507   3.575   0.441 -0.4402 -0.0904  1.6577
 9805SOL    HW230857   7.412   3.461   0.470 -1.3381 -0.2346 -1.4538
 9806SOL     OW30858   6.719   3.324   7.203 -0.2307 -0.1345 -0.2165
 9806SOL    HW130859   6.799   3.327   7.150  0.2733  0.2661  0.5487
 9806SOL    HW230860   6.743   3.367   7.285 -0.5840 -1.9865  0.9051
 9807SOL     OW30861   1.547   6.787   4.967 -0.5856 -0.4158  0.4006
 9807SOL    HW130862   1.629   6.826   4.994 -1.8906  1.7388  1.4834
 9807SOL    HW230863   1.569   6.738   4.887  1.5555  0.7977  0.1711
 9808SOL     OW30864   6.463   2.000   3.114 -0.6675  0.5207  0.1449
 9808SOL    HW130865   6.534   2.065   3.113  1.7496 -1.9138 -0.3998
 9808SOL    HW230866   6.449   1.979   3.021 -1.9771  0.8120  0.2647
 9809SOL     OW30867   0.880   0.700   8.054  0.1912  0.5198 -0.2076
 9809SOL    HW130868   0.839   0.691   8.140  1.2501 -0.1460  0.2585
 9809SOL    HW230869   0.849   0.784   8.020  0.3844  1.1695  1.1730
 9810SOL     OW30870   2.532   0.382   7.300  0.1419 -0.2996 -0.1032
 9810SOL    HW130871   2.569   0.320   7.364  0.7480 -1.3617 -1.4440
 9810SOL    HW230872   2.551   0.343   7.215 -1.2124  0.7818 -0.9330
 9811SOL     OW30873   5.192   5.578   9.370  0.5038 -0.1468  0.4332
 9811SOL    HW130874   5.168   5.486   9.383 -0.7649  0.2278  1.0064
 9811SOL    HW230875   5.285   5.577   9.350 -0.0348 -1.7999 -2.5096
 9812SOL     OW30876   4.108   3.997   1.819  1.0043 -0.4514 -0.1231
 9812SOL    HW130877   4.117   4.039   1.733 -2.6272 -1.2426 -1.0617
 9812SOL    HW230878   4.187   3.944   1.828  2.7816  1.7699 -1.6769
 9813SOL     OW30879   5.689   1.470   1.567  0.3216  0.0019  0.5716
 9813SOL    HW130880   5.748   1.400   1.594  0.3437  0.2752  1.2513
 9813SOL    HW230881   5.655   1.506   1.649 -0.2499  0.3076  0.2072
 9814SOL     OW30882   5.337   7.946   1.340 -0.4384  0.3560  0.8743
 9814SOL    HW130883   5.255   7.899   1.355 -0.8980  0.4360 -1.1535
 9814SOL    HW230884   5.381   7.897   1.270 -0.9153  2.8371 -1.3105
 9815SOL     OW30885   7.233   4.849   1.527 -0.0018  0.6164 -0.1195
 9815SOL    HW130886   7.253   4.825   1.436 -0.5233  1.2368 -0.4085
 9815SOL    HW230887   7.139   4.868   1.526 -0.2393 -0.4365  0.7944
 9816SOL     OW30888   6.565   5.228   6.016 -0.2271  0.2405  0.2187
 9816SOL    HW130889   6.637   5.186   6.063 -0.2470 -1.0377 -0.8334
 9816SOL    HW230890   6.598   5.315   5.993  0.1380  0.5151  1.6806
 9817SOL     OW30891   5.513   1.549   0.897  0.9229  0.4897  0.0103
 9817SOL    HW130892   5.580   1.540   0.830 -0.6079 -0.9150 -1.4472
 9817SOL    HW230893   5.542   1.492   0.968  0.8631 -0.8385 -0.9946
 9818SOL     OW30894   1.977   4.564   5.971  0.6730 -0.0009  0.1003
 9818SOL    HW130895   1.968   4.469   5.975  1.8583 -0.1286  0.0508
 9818SOL    HW230896   2.071   4.579   5.973  0.7468  0.9804 -3.7882
 9819SOL     OW30897   6.393   3.321   6.898  0.3616 -1.1253  0.1734
 9819SOL    HW130898   6.465   3.260   6.913  1.6986 -0.4360 -2.7949
 9819SOL    HW230899   6.424   3.380   6.829 -1.9685  1.0976  0.8240
 9820SOL     OW30900   1.645   5.850   1.590  0.5359  0.2119 -0.3886
 9820SOL    HW130901   1.588   5.796   1.645  1.2227  0.1683  0.2990
 9820SOL    HW230902   1.660   5.929   1.642  1.1719  0.1826 -0.5224
 9821SOL     OW30903   1.678   5.094   8.964 -0.3817 -1.0538 -0.0638
 9821SOL    HW130904   1.751   5.155   8.955 -1.4807  0.4142  0.4165
 9821SOL    HW230905   1.629   5.103   8.883 -0.2779 -1.7044 -0.2041
 9822SOL     OW30906   2.233   6.233   2.968  0.5361  0.1756  0.3801
 9822SOL    HW130907   2.325   6.216   2.952  0.6945  0.8386  0.5296
 9822SOL    HW230908   2.233   6.303   3.033 -0.0649  0.9894 -0.4673
 9823SOL     OW30909   0.437   3.073   8.334 -0.1221 -0.7037  0.1212
 9823SOL    HW130910   0.499   3.120   8.389  0.7604 -0.6564 -0.8848
 9823SOL    HW230911   0.362   3.132   8.326  0.5812  0.1513 -0.3658
 9824SOL     OW30912   0.372   6.155  10.259 -0.1840 -0.1988 -0.6778
 9824SOL    HW130913   0.428   6.219  10.303 -0.9215 -0.2900  0.4349
 9824SOL    HW230914   0.388   6.073  10.305  0.0569 -0.6234 -1.4891
 9825SOL     OW30915   5.567   0.715  11.446 -0.3121 -0.4564  0.7941
 9825SOL    HW130916   5.499   0.700  11.380 -1.2811  0.9914  1.4283
 9825SOL    HW230917   5.564   0.637  11.501 -0.4980 -1.0173  0.0210
 9826SOL     OW30918   0.575   1.949   6.648  0.0480  0.3958 -0.2737
 9826SOL    HW130919   0.591   2.021   6.587 -0.7384 -0.6392 -1.7691
 9826SOL    HW230920   0.660   1.904   6.655  0.2360  0.7435 -0.2984
 9827SOL     OW30921   5.168   5.790  11.130 -0.0669 -0.3536 -0.0325
 9827SOL    HW130922   5.126   5.705  11.142  0.0572 -0.6421 -1.4042
 9827SOL    HW230923   5.179   5.825  11.218  0.0176 -1.8336  0.5682
 9828SOL     OW30924   0.024   7.037   0.235 -0.1228  0.2973 -0.2279
 9828SOL    HW130925   0.061   6.999   0.315 -0.0766 -2.1015 -1.3253
 9828SOL    HW230926  -0.066   7.061   0.260 -0.9281 -2.6207  0.0233
 9829SOL     OW30927   4.782   0.955  12.189 -0.2071 -0.4190  0.0672
 9829SOL    HW130928   4.713   0.942  12.125  0.9866 -2.2422 -0.9384
 9829SOL    HW230929   4.758   0.898  12.262 -1.0240  0.8559  0.8173
 9830SOL     OW30930   7.543   3.727   0.205  0.6559  0.5954  0.2216
 9830SOL    HW130931   7.554   3.655   0.267 -0.7974  2.0743  2.3610
 9830SOL    HW230932   7.459   3.766   0.229 -0.7569  0.4164 -3.6859
 9831SOL     OW30933   1.519   6.976   5.745 -0.1663  0.0929  0.1621
 9831SOL    HW130934   1.466   6.935   5.676  0.3210  2.6408 -1.8946
 9831SOL    HW230935   1.456   7.002   5.812 -1.0268 -0.1786 -0.5242
 9832SOL     OW30936   4.828   5.865   6.807 -0.3925 -1.0643  0.2036
 9832SOL    HW130937   4.880   5.932   6.852  0.5127 -1.6520  0.0520
 9832SOL    HW230938   4.737   5.892   6.822 -0.0569  0.7850 -0.7335
 9833SOL     OW30939   1.331   0.136  11.513 -0.2341 -0.2036 -0.2321
 9833SOL    HW130940   1.282   0.198  11.568  0.2037 -0.6896  0.7340
 9833SOL    HW230941   1.265   0.074  11.483 -0.4433 -0.0514 -0.0930
 9834SOL     OW30942   0.892   6.244   3.278  0.3358 -0.0347 -0.2406
 9834SOL    HW130943   0.861   6.330   3.251 -1.8649 -1.1001 -1.4196
 9834SOL    HW230944   0.861   6.234   3.368 -1.4965 -0.4184 -0.8566
 9835SOL     OW30945   3.582   4.328  12.270 -0.5621 -0.2147  0.0780
 9835SOL    HW130946   3.563   4.316  12.177 -1.4689 -1.8222  0.4302
 9835SOL    HW230947   3.588   4.239  12.304  1.0908  0.3255  1.3214
 9836SOL     OW30948   7.798   1.236   8.472  0.0252 -0.0048  0.1196
 9836SOL    HW130949   7.809   1.253   8.379 -1.8255  0.6206 -0.0195
 9836SOL    HW230950   7.742   1.306   8.504  0.8065 -0.0668  1.7811
 9837SOL     OW30951   5.641   5.438  11.502  0.1331 -0.4917  0.0456
 9837SOL    HW130952   5.730   5.466  11.525 -0.5700  1.6035  0.4621
 9837SOL    HW230953   5.606   5.510  11.450 -1.6589 -0.8096  0.7512
 9838SOL     OW30954   4.135   2.682  10.998  0.3929  0.6307  0.1367
 9838SOL    HW130955   4.054   2.633  10.989  0.9595 -0.0506 -1.7085
 9838SOL    HW230956   4.111   2.773  10.981 -0.1585  0.5968  0.7106
 9839SOL     OW30957   5.427   2.357   5.467 -0.0706 -0.0267 -0.0686
 9839SOL    HW130958   5.465   2.410   5.398 -0.8153  0.0979 -0.3927
 9839SOL    HW230959   5.343   2.399   5.487  0.0093 -0.2134  0.7211
 9840SOL     OW30960   1.898   1.413   2.937  0.1385  0.1724  0.5064
 9840SOL    HW130961   1.821   1.367   2.903 -1.2374  1.8308  1.2228
 9840SOL    HW230962   1.969   1.389   2.877 -0.9174 -1.3738 -0.1976
 9841SOL     OW30963   5.742   1.637   7.992 -0.1568 -0.8067 -0.2862
 9841SOL    HW130964   5.759   1.582   7.916 -0.0594 -0.3940 -0.5637
 9841SOL    HW230965   5.656   1.676   7.975  0.6167  0.6227 -0.9920
 9842SOL     OW30966   7.051   2.415   8.491  0.2794 -0.0798 -0.6401
 9842SOL    HW130967   7.106   2.437   8.416  0.3133  0.1160 -0.5582
 9842SOL    HW230968   6.974   2.471   8.481 -0.3886 -1.0850 -1.3222
 9843SOL     OW30969   1.333   4.262   4.055 -0.2485 -0.4935  0.1996
 9843SOL    HW130970   1.364   4.237   3.968  0.4408  2.0217 -0.3661
 9843SOL    HW230971   1.253   4.211   4.068 -0.6925 -0.5036 -2.1729
 9844SOL     OW30972   6.564   1.658   4.254  0.1875 -0.0773  0.4604
 9844SOL    HW130973   6.469   1.656   4.257  0.1717  0.3482  0.2620
 9844SOL    HW230974   6.590   1.688   4.341  0.2332 -2.4571  1.3591
 9845SOL     OW30975   1.427   6.379   1.623 -0.3303 -0.2610  0.0496
 9845SOL    HW130976   1.453   6.448   1.684 -0.3526  0.1680 -0.4178
 9845SOL    HW230977   1.398   6.426   1.545  0.1221 -0.8073 -0.4602
 9846SOL     OW30978   6.738   7.173   6.719  0.3459 -0.2673 -0.3462
 9846SOL    HW130979   6.730   7.266   6.697 -1.3805 -0.1842  0.4365
 9846SOL    HW230980   6.750   7.130   6.634  0.1048  0.5759 -0.8267
 9847SOL     OW30981   2.982   1.889   9.288 -0.1075  0.3831 -0.5418
 9847SOL    HW130982   3.045   1.895   9.217 -0.2987 -0.7208 -0.8308
 9847SOL    HW230983   2.987   1.973   9.333  1.2893  0.4549 -0.7953
 9848SOL     OW30984   3.115   0.146   3.054  0.2063 -0.2457 -0.0038
 9848SOL    HW130985   3.085   0.120   3.142 -1.3391 -0.9342 -0.7007
 9848SOL    HW230986   3.188   0.206   3.071 -1.2669  1.1711  1.8032
 9849SOL     OW30987   7.178   7.468  11.286 -0.0676 -0.2465  0.0717
 9849SOL    HW130988   7.082   7.469  11.288 -0.0734 -0.5266 -0.0193
 9849SOL    HW230989   7.200   7.495  11.197 -0.0426  0.6205  0.3307
 9850SOL     OW30990   4.452   7.601   6.589 -0.2295  0.2932 -0.8379
 9850SOL    HW130991   4.365   7.588   6.627 -0.6006  0.7092 -1.5334
 9850SOL    HW230992   4.479   7.688   6.617 -0.4028  0.5059 -1.3277
 9851SOL     OW30993   2.329   5.009   6.107  0.0866 -0.4629 -0.4155
 9851SOL    HW130994   2.344   5.055   6.189  2.8933 -1.2841 -0.3308
 9851SOL    HW230995   2.250   4.957   6.122 -0.2482  0.4653  1.2572
 9852SOL     OW30996   3.448   3.013   7.734 -0.0401 -0.0535  0.2625
 9852SOL    HW130997   3.433   2.918   7.737  0.7452 -0.1731  2.9566
 9852SOL    HW230998   3.543   3.022   7.728 -0.1223  0.5704 -0.1766
 9853SOL     OW30999   3.902   0.719   7.876 -0.1179 -0.4112  0.1482
 9853SOL    HW131000   3.886   0.803   7.919 -0.2916 -0.0485 -0.6188
 9853SOL    HW231001   3.988   0.692   7.910  0.3730  0.5231 -0.3009
 9854SOL     OW31002   5.146   2.962   6.526 -0.7322 -0.3207  0.1007
 9854SOL    HW131003   5.218   2.938   6.585  0.1557 -1.9919 -1.5342
 9854SOL    HW231004   5.174   3.045   6.488 -1.0194  0.4557  1.5159
 9855SOL     OW31005   7.149   0.679   6.336 -0.0827 -0.3896 -0.5019
 9855SOL    HW131006   7.198   0.696   6.416 -0.7352 -1.9369  0.2645
 9855SOL    HW231007   7.156   0.760   6.286 -1.0563  1.2293  1.8444
 9856SOL     OW31008   5.141   1.345   8.807  0.2824 -0.0197  0.3413
 9856SOL    HW131009   5.073   1.290   8.767  1.4572 -0.7048 -0.7888
 9856SOL    HW231010   5.158   1.304   8.891 -0.2779 -0.1978  0.3744
 9857SOL     OW31011   0.121   6.631   3.455  0.0130  0.5291 -0.7650
 9857SOL    HW131012   0.087   6.542   3.468 -2.6952  1.3473 -1.5041
 9857SOL    HW231013   0.057   6.672   3.397  1.3159  2.9116 -0.6228
 9858SOL     OW31014   0.854   7.128   7.491 -0.3048  0.4775  0.0847
 9858SOL    HW131015   0.927   7.187   7.472  0.1478 -0.3813 -0.9315
 9858SOL    HW231016   0.862   7.109   7.584  1.6032 -0.6706 -0.2697
 9859SOL     OW31017   5.645   0.480   0.930  0.4884  0.0691 -0.1835
 9859SOL    HW131018   5.703   0.406   0.948  3.7491  2.2068 -1.0334
 9859SOL    HW231019   5.628   0.474   0.836 -0.1432 -0.2016 -0.0519
 9860SOL     OW31020   3.548   5.407   9.332  0.6409 -0.0285 -0.0391
 9860SOL    HW131021   3.485   5.336   9.341  0.0879  0.6730  2.2952
 9860SOL    HW231022   3.514   5.461   9.260 -0.7014 -0.3670  0.3251
 9861SOL     OW31023   5.068   4.963   5.996  0.3950 -0.0631  0.1029
 9861SOL    HW131024   5.080   5.050   6.033 -1.0919 -0.4028  1.5388
 9861SOL    HW231025   5.035   4.978   5.908 -0.9701  0.8686  0.7430
 9862SOL     OW31026   3.166   3.272   3.151 -0.1021 -0.0098 -0.3966
 9862SOL    HW131027   3.200   3.257   3.063  1.5705  2.2885 -0.2397
 9862SOL    HW231028   3.240   3.257   3.209 -0.9226 -0.5431  0.5481
 9863SOL     OW31029   2.669   2.036  11.213  0.2792  0.5447  0.6807
 9863SOL    HW131030   2.630   2.101  11.270 -0.1090  0.0432  1.0002
 9863SOL    HW231031   2.668   1.955  11.265 -3.4713 -0.8652 -1.2152
 9864SOL     OW31032   1.725   5.922   6.447  0.3060  0.4908 -0.1499
 9864SOL    HW131033   1.652   5.863   6.465  0.9410 -1.7968 -4.0316
 9864SOL    HW231034   1.689   5.988   6.387  0.9428  0.6547 -0.3599
 9865SOL     OW31035   6.028   2.003   5.068  0.5950  0.4413  0.0926
 9865SOL    HW131036   6.060   1.938   5.005  0.8665  0.7035 -0.0452
 9865SOL    HW231037   6.076   2.083   5.046  0.0403  0.7711  0.0568
 9866SOL     OW31038   3.961   0.687   3.351 -0.4719  0.0493  0.9149
 9866SOL    HW131039   3.920   0.657   3.270 -2.4568 -1.1897  2.2753
 9866SOL    HW231040   4.053   0.699   3.329 -1.2037  1.2679 -1.8812
 9867SOL     OW31041   6.658   6.675   0.140  0.5904 -0.2605  0.2859
 9867SOL    HW131042   6.682   6.604   0.200 -0.2973 -1.2207 -0.4647
 9867SOL    HW231043   6.685   6.643   0.053  0.3680  0.4074 -0.0340
 9868SOL     OW31044   4.091   3.413   7.372  0.2014 -0.0955 -0.3814
 9868SOL    HW131045   4.042   3.396   7.291  1.2283  1.4160 -1.3846
 9868SOL    HW231046   4.145   3.335   7.383 -1.6901 -1.4007  0.2557
 9869SOL     OW31047   5.614   5.801   4.759 -0.7182  0.0429 -0.2894
 9869SOL    HW131048   5.665   5.808   4.678 -0.4846 -0.5567 -0.1989
 9869SOL    HW231049   5.612   5.890   4.794  1.1303 -0.0831  0.2324
 9870SOL     OW31050   2.155   4.646  10.321  0.0693 -0.2082  0.1311
 9870SOL    HW131051   2.190   4.563  10.355  0.3678  0.4108  1.3799
 9870SOL    HW231052   2.176   4.710  10.389 -0.3125  0.8653 -0.7471
 9871SOL     OW31053   6.766   2.909   3.740  0.4307  0.4451  0.2077
 9871SOL    HW131054   6.856   2.877   3.735  0.2185 -0.2441  0.5976
 9871SOL    HW231055   6.723   2.874   3.662 -0.1511 -1.4323  1.2874
 9872SOL     OW31056   1.928   5.353   5.353  0.0247  0.8719  0.3096
 9872SOL    HW131057   1.921   5.437   5.397  0.9683  1.8656 -1.3320
 9872SOL    HW231058   1.871   5.294   5.403 -2.6619  3.0668  0.0688
 9873SOL     OW31059   4.059   1.241   4.925 -0.1134 -0.1600  0.0603
 9873SOL    HW131060   3.988   1.184   4.893 -1.4634  0.3531  1.9918
 9873SOL    HW231061   4.037   1.328   4.892  0.6787 -0.2999 -0.9042
 9874SOL     OW31062   5.661   4.565  11.937  0.1195 -0.1542 -0.2600
 9874SOL    HW131063   5.618   4.650  11.924  2.6169  1.3858  0.5883
 9874SOL    HW231064   5.642   4.543  12.028 -1.1305 -0.9189 -0.6864
 9875SOL     OW31065   1.221   3.345   0.517  0.1982  0.3655  0.1531
 9875SOL    HW131066   1.141   3.294   0.502  0.3726  0.1996 -0.2242
 9875SOL    HW231067   1.216   3.416   0.452  0.6728 -0.0181 -0.3056
 9876SOL     OW31068   0.134   0.951   1.493 -0.2751  0.2271 -0.6116
 9876SOL    HW131069   0.194   0.914   1.557  0.4194  0.9852 -0.8040
 9876SOL    HW231070   0.051   0.907   1.509 -0.0931  0.3418  0.7497
 9877SOL     OW31071   2.056   5.852   4.744  0.5569 -0.8247  0.1371
 9877SOL    HW131072   2.117   5.922   4.770  1.3559 -1.7854  0.9608
 9877SOL    HW231073   2.013   5.826   4.826 -1.2998  0.1004 -0.4944
 9878SOL     OW31074   0.663   3.022   8.129  0.1688  0.2101 -0.1015
 9878SOL    HW131075   0.702   2.951   8.077 -1.7745  0.7791 -2.5432
 9878SOL    HW231076   0.571   3.024   8.102 -0.4146  2.0688  1.7648
 9879SOL     OW31077   6.351   3.478  11.646 -0.4905 -0.5611  0.0810
 9879SOL    HW131078   6.413   3.413  11.680 -0.4230 -0.6682 -0.2398
 9879SOL    HW231079   6.270   3.460  11.693  0.4448  1.4708  2.7336
 9880SOL     OW31080   1.176   5.774   9.574 -0.3516 -0.3524  0.5463
 9880SOL    HW131081   1.248   5.777   9.510 -0.5988 -0.0499  0.2779
 9880SOL    HW231082   1.182   5.857   9.621 -0.1109 -0.6148  0.9918
 9881SOL     OW31083   7.569   5.623  12.096 -0.0597  0.1641 -0.2031
 9881SOL    HW131084   7.538   5.660  12.178 -0.1191 -1.0604  0.3550
 9881SOL    HW231085   7.503   5.648  12.031 -0.5755  0.2310  0.3421
 9882SOL     OW31086   3.156   5.601   8.091 -0.5894 -0.4856  0.3316
 9882SOL    HW131087   3.134   5.662   8.022  1.2760 -1.4257 -1.1802
 9882SOL    HW231088   3.148   5.514   8.051  1.2167 -1.0302  1.0354
 9883SOL     OW31089   6.916   1.129  11.866  0.2081 -0.2154  0.4686
 9883SOL    HW131090   6.822   1.134  11.881  0.1692 -1.6412  0.8125
 9883SOL    HW231091   6.933   1.195  11.799 -1.1419 -0.3876 -0.0692
 9884SOL     OW31092   4.768   5.430   6.326  0.1532  0.1369 -0.2681
 9884SOL    HW131093   4.747   5.510   6.278  0.0577 -0.4793 -1.2841
 9884SOL    HW231094   4.862   5.419   6.315  0.8243  1.8460  2.6550
 9885SOL     OW31095   0.311   4.365  11.486 -0.3492  0.1613  0.8809
 9885SOL    HW131096   0.344   4.440  11.436 -1.7983  1.4030  1.7106
 9885SOL    HW231097   0.337   4.384  11.577 -0.5705 -0.4246  1.0677
 9886SOL     OW31098   7.778   1.917  11.048 -0.6696  0.0675  0.1049
 9886SOL    HW131099   7.753   1.825  11.041 -0.9121  0.1411 -0.0354
 9886SOL    HW231100   7.838   1.921  11.123  0.4112 -0.4173 -0.7168
 9887SOL     OW31101   2.714   6.798   1.198  0.2713  0.1043 -0.4355
 9887SOL    HW131102   2.695   6.776   1.107 -1.8206  0.3227 -0.0944
 9887SOL    HW231103   2.662   6.735   1.249  2.5780 -1.0308  0.6684
 9888SOL     OW31104   0.639   6.721   0.690 -0.1551 -0.4180  0.0433
 9888SOL    HW131105   0.548   6.721   0.721  0.2508  1.2818  1.4120
 9888SOL    HW231106   0.635   6.766   0.605 -0.5483 -0.0644  0.2470
 9889SOL     OW31107   1.664   5.106   3.743 -0.0683 -0.4834  0.3655
 9889SOL    HW131108   1.740   5.137   3.792  0.6786 -0.9300 -0.4806
 9889SOL    HW231109   1.597   5.172   3.760  0.2943 -0.4028  1.6277
 9890SOL     OW31110   7.706   4.054   8.865 -0.0643  0.0149 -0.2451
 9890SOL    HW131111   7.673   4.059   8.955  0.1076 -0.9187 -0.1271
 9890SOL    HW231112   7.791   4.012   8.872 -0.3340 -0.6791 -0.9044
 9891SOL     OW31113   6.792   2.108   5.358  0.2342  0.0085  0.0624
 9891SOL    HW131114   6.816   2.050   5.286  1.6690 -0.7307  1.0996
 9891SOL    HW231115   6.742   2.179   5.316 -1.4901 -1.8663 -1.2457
 9892SOL     OW31116   6.989   2.225   7.103  0.0478 -0.0137  0.4894
 9892SOL    HW131117   6.995   2.153   7.166  0.6815 -1.2526 -0.9256
 9892SOL    HW231118   6.931   2.192   7.034 -0.8657  1.4190  0.5262
 9893SOL     OW31119   7.933   7.214   3.659 -0.1141  0.7866  0.2418
 9893SOL    HW131120   7.969   7.169   3.736  0.9532  0.8884 -0.1686
 9893SOL    HW231121   7.984   7.179   3.586 -2.0152 -0.3069 -0.6229
 9894SOL     OW31122   6.317   1.037   1.230  0.0819 -0.5464  0.1203
 9894SOL    HW131123   6.402   1.070   1.204 -0.1149 -0.4401 -0.4076
 9894SOL    HW231124   6.254   1.094   1.185 -0.2677 -0.5418  0.6074
 9895SOL     OW31125   3.127   0.988  10.394 -0.2072 -0.2697  0.2681
 9895SOL    HW131126   3.120   0.896  10.418  0.0564 -0.1834  0.6919
 9895SOL    HW231127   3.185   0.988  10.318 -1.4738 -0.5936 -0.7396
 9896SOL     OW31128   7.362   7.613   9.708 -0.3167 -0.0573  0.3391
 9896SOL    HW131129   7.407   7.677   9.763 -2.1871  0.9372  0.8324
 9896SOL    HW231130   7.377   7.643   9.618  1.8684 -1.0843  0.3072
 9897SOL     OW31131   4.251   3.442  10.166  0.3580 -0.4051  0.4180
 9897SOL    HW131132   4.244   3.517  10.106  0.1541  1.1947  2.3273
 9897SOL    HW231133   4.257   3.366  10.108 -0.7443  0.9430 -1.6145
 9898SOL     OW31134   5.926   4.080   4.848  0.1898 -0.0539  0.1593
 9898SOL    HW131135   5.967   4.157   4.888  1.7541 -0.3358 -0.8198
 9898SOL    HW231136   5.832   4.100   4.850  0.5574  1.9787 -0.2470
 9899SOL     OW31137   4.731   0.955   9.214 -0.4064 -0.1902 -0.3878
 9899SOL    HW131138   4.761   0.885   9.157 -2.4843 -1.9375  0.5566
 9899SOL    HW231139   4.692   0.911   9.289 -1.4595  1.9831  0.4405
 9900SOL     OW31140   7.025   3.311   9.641  0.2353 -0.3471  0.1620
 9900SOL    HW131141   6.967   3.308   9.566 -0.3738 -1.4839  0.6491
 9900SOL    HW231142   6.974   3.273   9.713  1.1960 -0.3478  0.8755
 9901SOL     OW31143   2.643   1.157  10.968 -0.0638 -0.0435 -0.4735
 9901SOL    HW131144   2.629   1.077  11.018 -0.2123  0.4535  0.2871
 9901SOL    HW231145   2.617   1.227  11.027 -0.1031  0.5584 -1.1985
 9902SOL     OW31146   2.329   6.536  10.608 -0.2763 -0.1993  0.6355
 9902SOL    HW131147   2.276   6.465  10.644 -2.1551  1.8722  2.2248
 9902SOL    HW231148   2.275   6.573  10.538 -0.0269  0.6150  0.8555
 9903SOL     OW31149   3.334   7.597   6.018  0.2595  0.0200 -0.2508
 9903SOL    HW131150   3.381   7.624   5.940 -0.3974 -0.7140 -0.9307
 9903SOL    HW231151   3.323   7.677   6.070 -0.2591  0.7452 -1.4407
 9904SOL     OW31152   0.236   7.859   2.359  0.2459  0.1819  0.0170
 9904SOL    HW131153   0.302   7.919   2.396 -0.7748  0.5879  1.2528
 9904SOL    HW231154   0.239   7.782   2.416  0.9121 -0.5894 -1.0251
 9905SOL     OW31155   3.331   0.466   5.352 -0.0488  0.3306 -0.3067
 9905SOL    HW131156   3.289   0.521   5.418 -0.7967 -0.5247 -0.0471
 9905SOL    HW231157   3.409   0.514   5.327  0.4752  0.4789  1.5017
 9906SOL     OW31158   4.965   6.392   0.448  0.0631  0.0552  0.0877
 9906SOL    HW131159   4.927   6.343   0.375  1.5449 -0.6225 -0.2814
 9906SOL    HW231160   5.060   6.387   0.433  0.4095 -0.0685  2.0270
 9907SOL     OW31161   3.138   5.604   5.462 -0.3294 -0.0497  0.1094
 9907SOL    HW131162   3.208   5.541   5.448  1.0220  0.9446  1.8795
 9907SOL    HW231163   3.156   5.675   5.400 -0.7607 -0.5485 -0.5925
 9908SOL     OW31164   2.476   3.946   6.635  0.7382 -0.8700 -0.7381
 9908SOL    HW131165   2.403   3.888   6.659  0.3071 -0.9552 -2.1708
 9908SOL    HW231166   2.529   3.951   6.714 -0.9775 -0.5668  0.4587
 9909SOL     OW31167   4.198   6.910   5.912 -0.0583  0.0573 -0.0992
 9909SOL    HW131168   4.280   6.952   5.886  1.6382 -1.8537  1.8025
 9909SOL    HW231169   4.168   6.962   5.986  0.6478 -0.5031  0.5984
 9910SOL     OW31170   2.610   0.233   2.071 -0.1590  0.0507 -0.5985
 9910SOL    HW131171   2.629   0.189   2.154 -0.0255  0.2217 -0.5374
 9910SOL    HW231172   2.688   0.286   2.054 -0.0476 -0.2386 -1.0017
 9911SOL     OW31173   2.536   6.568   5.667  0.2627  0.2585 -0.3692
 9911SOL    HW131174   2.519   6.583   5.760  1.1384 -0.3688 -0.0895
 9911SOL    HW231175   2.609   6.505   5.666  0.0970  0.0640 -1.4776
 9912SOL     OW31176   6.259   3.457   2.463 -0.0344  0.1186  0.0726
 9912SOL    HW131177   6.285   3.368   2.487 -0.2899 -0.2360 -0.8956
 9912SOL    HW231178   6.289   3.467   2.372  0.0907  1.0620  0.2095
 9913SOL     OW31179   6.618   6.571   7.287 -0.0588 -0.0771  0.3806
 9913SOL    HW131180   6.620   6.606   7.376  1.8313 -0.2264  0.4468
 9913SOL    HW231181   6.573   6.637   7.235 -1.9650 -0.3790  1.5781
 9914SOL     OW31182   4.058   0.704   5.260  0.1743  0.2662 -0.3219
 9914SOL    HW131183   4.077   0.647   5.186  1.3487  2.2428 -1.6401
 9914SOL    HW231184   4.135   0.759   5.268 -0.7250  1.3890  1.1629
 9915SOL     OW31185   7.936   2.577   4.402  0.2629 -0.6055 -0.9406
 9915SOL    HW131186   7.986   2.652   4.435 -0.9401  0.9021 -2.3350
 9915SOL    HW231187   7.871   2.559   4.470  0.1028  0.1114 -0.8940
 9916SOL     OW31188   5.441   7.644   1.357 -0.2980  0.1993 -0.6794
 9916SOL    HW131189   5.427   7.699   1.279 -0.9996  0.2930 -0.4903
 9916SOL    HW231190   5.453   7.556   1.322 -0.2965  0.2920 -0.9164
 9917SOL     OW31191   1.451   2.592   2.929 -0.4806  0.0217  0.3713
 9917SOL    HW131192   1.436   2.591   2.835  1.6102  2.0671 -0.0720
 9917SOL    HW231193   1.538   2.553   2.939 -0.5559  0.0949  1.4254
 9918SOL     OW31194   6.599   7.953  12.228 -0.7154  0.0019  0.1284
 9918SOL    HW131195   6.563   8.027  12.278  2.5093  2.1403 -0.4444
 9918SOL    HW231196   6.693   7.958  12.243 -0.2384 -3.1606 -1.1722
 9919SOL     OW31197   3.637   7.939   9.267  0.3813 -1.0209 -0.0185
 9919SOL    HW131198   3.708   7.919   9.206  0.4254  0.5754 -0.5350
 9919SOL    HW231199   3.560   7.896   9.230  0.6605 -1.0721 -0.5373
 9920SOL     OW31200   1.232   2.945   2.083  0.2614  0.3007 -0.0676
 9920SOL    HW131201   1.239   2.900   2.167 -0.0255 -1.1894 -0.8088
 9920SOL    HW231202   1.144   2.925   2.053  1.7125 -3.0569 -2.7556
 9921SOL     OW31203   4.360   4.279   6.247  0.0748 -0.0837 -0.2273
 9921SOL    HW131204   4.366   4.352   6.186 -1.7092 -1.4992 -2.2620
 9921SOL    HW231205   4.424   4.215   6.214 -0.7977 -0.8013 -0.5634
 9922SOL     OW31206   7.311   7.890  12.010  0.9232 -0.2563  0.1487
 9922SOL    HW131207   7.236   7.906  11.953  1.4416  0.3115 -0.3847
 9922SOL    HW231208   7.344   7.805  11.981  2.8391  1.1950 -2.3466
 9923SOL     OW31209   6.713   1.053   6.427 -0.4645 -0.0748 -0.0468
 9923SOL    HW131210   6.754   1.029   6.344  1.5944 -0.2510  0.9771
 9923SOL    HW231211   6.785   1.079   6.483 -1.3145 -3.3751  2.9060
 9924SOL     OW31212   4.813   7.112   4.030 -0.3253  0.1298 -0.5094
 9924SOL    HW131213   4.799   7.017   4.023 -1.6611  0.4081 -2.4134
 9924SOL    HW231214   4.877   7.132   3.961 -1.5677  0.8372 -1.5149
 9925SOL     OW31215   7.939   7.158  10.523  0.2790 -0.6110 -0.3004
 9925SOL    HW131216   7.998   7.082  10.523  2.0798  0.7261 -0.6839
 9925SOL    HW231217   7.884   7.146  10.446  1.4861 -0.8598 -1.1480
 9926SOL     OW31218   6.661   5.534   7.256 -0.4356 -0.4768  0.3934
 9926SOL    HW131219   6.729   5.526   7.322  1.3725 -2.1739 -1.5316
 9926SOL    HW231220   6.706   5.573   7.180 -1.9378 -0.4174 -0.5129
 9927SOL     OW31221   6.597   2.499   9.996  0.2472  0.3587 -0.1079
 9927SOL    HW131222   6.658   2.435   9.958 -0.2630  0.4760 -1.1593
 9927SOL    HW231223   6.653   2.557  10.047  0.7352 -0.8855  0.8301
 9928SOL     OW31224   4.252   2.382   6.091 -0.2090 -1.0710  0.2498
 9928SOL    HW131225   4.212   2.402   6.176 -0.9170  0.4247 -0.4178
 9928SOL    HW231226   4.181   2.388   6.028  0.4822 -1.3234 -0.5799
 9929SOL     OW31227   3.916   4.564   3.870  0.0792 -0.5063  0.5941
 9929SOL    HW131228   3.853   4.624   3.830 -0.6227 -0.0064  2.3498
 9929SOL    HW231229   3.992   4.567   3.812 -0.8437  0.2288 -0.6362
 9930SOL     OW31230   4.712   7.844  11.408  0.6162  0.8795  0.3560
 9930SOL    HW131231   4.711   7.871  11.499  3.3129 -0.1375  0.7876
 9930SOL    HW231232   4.764   7.910  11.363 -1.3645  1.8254 -0.6995
 9931SOL     OW31233   1.700   6.824   0.938  0.1499  0.0759 -0.7906
 9931SOL    HW131234   1.627   6.849   0.995  0.2419 -1.0499 -0.1492
 9931SOL    HW231235   1.667   6.840   0.850 -1.1354 -1.0007 -0.5497
 9932SOL     OW31236   0.746   5.872   7.234  0.1643 -0.0664 -0.2689
 9932SOL    HW131237   0.678   5.885   7.168 -1.5931  0.0751  1.4895
 9932SOL    HW231238   0.772   5.780   7.223 -0.0079 -0.0108 -1.2263
 9933SOL     OW31239   2.868   4.627   5.524  0.6450  0.2945  0.4434
 9933SOL    HW131240   2.949   4.577   5.517  1.1175  1.1852 -0.7166
 9933SOL    HW231241   2.807   4.583   5.465  1.3166  1.4981 -1.2388
 9934SOL     OW31242   1.305   7.382   5.937  0.0758  0.3974 -0.6303
 9934SOL    HW131243   1.374   7.400   5.873 -0.1073 -0.6638 -1.1387
 9934SOL    HW231244   1.287   7.288   5.928  1.9687 -0.4895  2.8420
 9935SOL     OW31245   4.301   5.370   1.149 -0.6933 -0.6529  0.0039
 9935SOL    HW131246   4.283   5.335   1.236 -4.2382 -2.9533 -1.4034
 9935SOL    HW231247   4.349   5.301   1.105 -0.3411 -0.1914 -0.3455
 9936SOL     OW31248   5.120   1.018  10.939  0.5823 -0.0246  0.0495
 9936SOL    HW131249   5.081   0.981  10.860  1.2053  1.1021 -0.8056
 9936SOL    HW231250   5.045   1.053  10.988  0.3442  0.7936 -0.8670
 9937SOL     OW31251   1.536   6.484  10.811  0.0582 -0.7123 -0.4200
 9937SOL    HW131252   1.619   6.494  10.857  0.2101 -1.5578 -0.4904
 9937SOL    HW231253   1.471   6.522  10.870  0.4129 -0.6454 -0.0682
 9938SOL     OW31254   1.876   0.355   0.041 -0.3821 -0.1854 -0.1027
 9938SOL    HW131255   1.948   0.392   0.090  0.2417 -1.4700 -0.0007
 9938SOL    HW231256   1.850   0.423  -0.021  1.4621  0.0122 -0.7005
 9939SOL     OW31257   7.916   2.069   8.240 -0.2410  0.3861 -0.1151
 9939SOL    HW131258   8.000   2.108   8.215  0.2180 -0.7951 -0.4898
 9939SOL    HW231259   7.879   2.130   8.303  0.7264  1.1185 -0.2348
 9940SOL     OW31260   3.917   6.664   9.628 -0.3046  0.3477  0.1472
 9940SOL    HW131261   3.996   6.656   9.682  0.1374  0.8375 -0.4061
 9940SOL    HW231262   3.901   6.575   9.596  1.2336  0.5589 -1.3803
 9941SOL     OW31263   3.766   1.256   2.350 -0.1502  0.3881  0.2696
 9941SOL    HW131264   3.678   1.233   2.381  0.5344 -0.8901  1.3882
 9941SOL    HW231265   3.809   1.297   2.426  0.6387 -0.2105  0.1602
 9942SOL     OW31266   0.468   7.084   8.790 -0.1181 -0.2766 -0.5527
 9942SOL    HW131267   0.483   6.990   8.780  0.3455 -0.3615  0.7707
 9942SOL    HW231268   0.469   7.099   8.884 -1.2473  0.9033 -0.6976
 9943SOL     OW31269   6.290   4.872   1.610 -0.2609 -0.0643  0.2514
 9943SOL    HW131270   6.234   4.936   1.653  0.1089 -0.5763  1.5681
 9943SOL    HW231271   6.359   4.855   1.674  0.4606 -0.6866 -0.6671
 9944SOL     OW31272   6.864   5.582   1.216 -0.1647 -0.9991 -0.6846
 9944SOL    HW131273   6.940   5.624   1.176  0.4886 -0.4552  1.0114
 9944SOL    HW231274   6.793   5.646   1.205  0.4855  0.0215  0.6525
 9945SOL     OW31275   4.765   5.215   0.850 -0.0756  0.1013  0.1642
 9945SOL    HW131276   4.778   5.121   0.862  0.2052  0.0396 -0.6074
 9945SOL    HW231277   4.853   5.252   0.850 -0.2230  0.7194  3.0448
 9946SOL     OW31278   1.346   3.587   9.682  0.0229 -0.2902  0.6190
 9946SOL    HW131279   1.287   3.553   9.749 -0.4804  1.1869  0.9600
 9946SOL    HW231280   1.409   3.640   9.731  1.1085 -1.1063  0.1603
 9947SOL     OW31281   1.881   1.804  10.679 -0.4032 -0.2885  0.3318
 9947SOL    HW131282   1.932   1.885  10.680 -1.6624  0.5665 -0.8558
 9947SOL    HW231283   1.897   1.767  10.593 -2.7659  0.6977 -0.5974
 9948SOL     OW31284   6.718   5.428   6.488 -0.0912 -0.2450 -0.1855
 9948SOL    HW131285   6.806   5.451   6.460  0.3957 -1.5898  0.1534
 9948SOL    HW231286   6.715   5.332   6.482 -2.0239 -0.1632 -1.6348
 9949SOL     OW31287   4.118   7.131   6.974  0.4521 -0.4044 -0.1162
 9949SOL    HW131288   4.166   7.208   6.945  0.8537 -0.5201  0.2351
 9949SOL    HW231289   4.120   7.136   7.070  2.0613 -1.8047 -0.0254
 9950SOL     OW31290   7.503   3.970   4.049 -0.2784 -0.0635  0.0679
 9950SOL    HW131291   7.534   3.879   4.054  0.2231  0.0924 -0.2257
 9950SOL    HW231292   7.410   3.962   4.026 -0.6899 -0.5553  1.7578
 9951SOL     OW31293   6.787   3.010   2.355 -0.1919 -0.0095  0.2447
 9951SOL    HW131294   6.762   3.102   2.345  1.2875  0.2421 -2.0736
 9951SOL    HW231295   6.748   2.967   2.278 -0.3473 -1.2081  0.9730
 9952SOL     OW31296   1.785   2.462   0.438 -0.0891  0.3437 -0.1304
 9952SOL    HW131297   1.870   2.498   0.411 -0.1691  1.6650  1.2880
 9952SOL    HW231298   1.766   2.396   0.371  0.8466  1.7704 -1.9128
 9953SOL     OW31299   7.251   7.863   6.524 -0.5371  0.0461 -0.2931
 9953SOL    HW131300   7.243   7.897   6.613  0.4449 -0.3696 -0.0269
 9953SOL    HW231301   7.305   7.785   6.534  1.3939  1.1470 -1.5028
 9954SOL     OW31302   6.172   7.141   2.715 -0.2853 -0.1461 -0.2574
 9954SOL    HW131303   6.194   7.116   2.626  1.2387 -3.9574  0.9971
 9954SOL    HW231304   6.157   7.058   2.761 -2.0477  1.6689  2.8257
 9955SOL     OW31305   6.768   0.485   9.805  0.5266 -0.7763  0.2493
 9955SOL    HW131306   6.758   0.439   9.721 -2.3505 -1.0769  0.6398
 9955SOL    HW231307   6.719   0.431   9.867 -2.3878  2.2709  0.8802
 9956SOL     OW31308   2.236   4.933   2.613  0.3640  0.4348  0.3807
 9956SOL    HW131309   2.267   4.987   2.686  0.4629  1.5800 -0.4837
 9956SOL    HW231310   2.308   4.935   2.550 -0.4338  1.0034 -0.5443
 9957SOL     OW31311   4.120   6.899   0.104  0.4557  0.0866  0.5336
 9957SOL    HW131312   4.215   6.884   0.104  0.6166  0.8739  2.0142
 9957SOL    HW231313   4.106   6.968   0.040  0.8172 -0.3398 -0.0146
 9958SOL     OW31314   4.943   0.507  10.280  0.3426 -0.5976  0.2646
 9958SOL    HW131315   4.974   0.518  10.370 -0.9364  1.0457  0.5608
 9958SOL    HW231316   4.877   0.438  10.286  1.0335 -1.2636  0.3650
 9959SOL     OW31317   3.762   2.548   6.286 -0.7405  0.5295 -0.5046
 9959SOL    HW131318   3.759   2.614   6.216 -1.5964 -1.2240 -2.2180
 9959SOL    HW231319   3.671   2.543   6.317 -0.3913  1.1852  0.6659
 9960SOL     OW31320   2.716   1.081   3.190  0.4816  0.1629  0.1263
 9960SOL    HW131321   2.749   1.169   3.207  0.3776  0.5885 -1.7077
 9960SOL    HW231322   2.682   1.052   3.275  2.0362  1.2018  1.1661
 9961SOL     OW31323   4.498   7.482   9.582 -0.0989 -0.1669 -0.2198
 9961SOL    HW131324   4.577   7.534   9.597  0.2407 -0.5903 -0.5148
 9961SOL    HW231325   4.434   7.517   9.645  0.4729 -0.1365  0.3605
 9962SOL     OW31326   0.898   6.143  10.528 -0.2743 -0.5434 -0.3782
 9962SOL    HW131327   0.944   6.227  10.529  0.4051 -0.7694 -3.3866
 9962SOL    HW231328   0.956   6.083  10.575 -0.1274  0.3523  0.6150
 9963SOL     OW31329   0.532   1.991   5.797 -0.1906 -0.4236  0.5251
 9963SOL    HW131330   0.596   2.057   5.825 -0.1965  0.0526 -0.5250
 9963SOL    HW231331   0.508   1.946   5.877  0.2141  0.5084  1.1964
 9964SOL     OW31332   4.126   1.265   9.423 -0.0851 -0.1332 -0.2169
 9964SOL    HW131333   4.089   1.289   9.508  2.6164  1.5838  0.6137
 9964SOL    HW231334   4.162   1.177   9.436  0.2735  0.1047  0.4071
 9965SOL     OW31335   3.921   4.714   2.473 -0.2355 -0.0352 -0.1024
 9965SOL    HW131336   3.875   4.632   2.458 -1.4492  0.5727  0.1763
 9965SOL    HW231337   3.860   4.782   2.444  0.4940  0.7975  0.2481
 9966SOL     OW31338   2.862   0.467  11.256 -0.3474  0.2718 -1.0666
 9966SOL    HW131339   2.904   0.464  11.342  1.1732  2.4821 -1.6429
 9966SOL    HW231340   2.769   0.481  11.275 -0.2685 -0.7725  0.2003
 9967SOL     OW31341   2.090   0.102   6.526  0.4729 -0.3322 -0.3570
 9967SOL    HW131342   2.158   0.040   6.551  0.4603 -0.8420 -1.5274
 9967SOL    HW231343   2.032   0.106   6.602  1.0859 -0.9049  0.1498
 9968SOL     OW31344   6.157   6.470   0.629 -0.1245  1.3203 -0.1366
 9968SOL    HW131345   6.165   6.491   0.722  0.7777 -0.2343  0.1786
 9968SOL    HW231346   6.242   6.433   0.605 -0.8268  0.3191 -1.1961
 9969SOL     OW31347   1.321   0.265   3.016 -0.0705 -0.1917 -0.3642
 9969SOL    HW131348   1.271   0.259   2.934 -0.8503 -0.5914  0.1264
 9969SOL    HW231349   1.410   0.239   2.992 -0.7056 -2.2063 -0.7406
 9970SOL     OW31350   5.643   7.115   3.963  0.3542 -0.9456  0.1387
 9970SOL    HW131351   5.585   7.159   3.900  2.1369  0.2598 -0.7168
 9970SOL    HW231352   5.614   7.147   4.048  0.7472  0.9046 -0.3851
 9971SOL     OW31353   7.662   6.266   7.245 -0.9453  0.7945  0.2340
 9971SOL    HW131354   7.720   6.228   7.179  1.2830  2.5939  0.9889
 9971SOL    HW231355   7.664   6.360   7.227 -1.0730  1.2261  2.2358
 9972SOL     OW31356   1.515   6.790   5.500  0.1632 -0.4040  0.0155
 9972SOL    HW131357   1.509   6.719   5.565 -1.5980  0.2499  0.6251
 9972SOL    HW231358   1.591   6.766   5.446  0.0898 -2.3529  0.6737
 9973SOL     OW31359   3.711   3.119   9.308 -0.2970 -0.1792  0.2113
 9973SOL    HW131360   3.789   3.098   9.257  0.4660 -0.2972  1.3744
 9973SOL    HW231361   3.733   3.203   9.351 -1.3849  0.5345 -0.5739
 9974SOL     OW31362   4.757   4.083  11.393  0.1812 -0.2322 -0.4234
 9974SOL    HW131363   4.740   3.990  11.383  0.5850 -0.2288 -1.2323
 9974SOL    HW231364   4.850   4.088  11.417 -0.3938 -0.1501  2.0415
 9975SOL     OW31365   6.311   3.934   3.655  0.1901  0.3599 -0.0662
 9975SOL    HW131366   6.220   3.949   3.631 -0.5247 -1.6354  1.1208
 9975SOL    HW231367   6.341   3.868   3.593  0.7039  0.7009 -0.1845
 9976SOL     OW31368   1.070   3.742   2.132  0.0446 -0.6090  0.0555
 9976SOL    HW131369   1.064   3.698   2.217 -0.8965 -0.0112  0.3162
 9976SOL    HW231370   1.011   3.693   2.075 -1.8595  0.8686  0.6299
 9977SOL     OW31371   5.471   4.248   4.025 -0.5252 -0.2112 -0.0938
 9977SOL    HW131372   5.377   4.257   4.044 -0.5578 -2.4616  1.1784
 9977SOL    HW231373   5.508   4.333   4.046 -1.7908 -0.2684  2.8912
 9978SOL     OW31374   3.763   5.974   3.064 -0.3434  0.1725  0.0213
 9978SOL    HW131375   3.749   6.034   2.991  1.8913 -0.0265 -0.6494
 9978SOL    HW231376   3.719   5.893   3.038  0.3573  0.1321 -1.0903
 9979SOL     OW31377   5.375   2.695   8.786 -0.0781  0.1971  0.0547
 9979SOL    HW131378   5.422   2.768   8.747  1.0821 -0.2469  0.5963
 9979SOL    HW231379   5.408   2.617   8.741  0.1266 -0.1741  0.8324
 9980SOL     OW31380   1.481   2.969   2.181  0.2640  0.9393  0.2683
 9980SOL    HW131381   1.425   2.982   2.105 -1.0538  1.2762  1.2638
 9980SOL    HW231382   1.563   2.934   2.145 -0.3782  0.9476 -1.2693
 9981SOL     OW31383   5.530   1.038   2.302 -0.3502  0.2307 -0.1556
 9981SOL    HW131384   5.598   0.997   2.249 -0.2451  1.9776 -1.4154
 9981SOL    HW231385   5.565   1.123   2.326 -2.2601  1.3858 -1.2568
 9982SOL     OW31386   0.532   1.959   4.942  0.7952  0.0297  0.4207
 9982SOL    HW131387   0.612   1.992   4.982  1.1227 -0.4662  0.1743
 9982SOL    HW231388   0.463   1.985   5.003  1.2275 -0.2213  1.0215
 9983SOL     OW31389   2.186   3.383   6.304 -0.3109  0.0620  0.2691
 9983SOL    HW131390   2.208   3.394   6.212  0.1632  1.4295  0.5195
 9983SOL    HW231391   2.092   3.368   6.305 -0.0569 -1.8878 -0.5407
 9984SOL     OW31392   1.576   2.672  10.773  0.0102 -0.6974  0.3184
 9984SOL    HW131393   1.642   2.737  10.746 -0.0711 -0.9688 -0.5672
 9984SOL    HW231394   1.625   2.591  10.785 -0.0214 -0.6790  0.5778
 9985SOL     OW31395   0.422   3.984  12.043  0.2059 -0.0681  0.5017
 9985SOL    HW131396   0.374   3.902  12.038  2.1492 -1.2850  0.6319
 9985SOL    HW231397   0.432   4.012  11.952 -0.5749  0.0994  0.4644
 9986SOL     OW31398   0.859   1.463   7.991  0.1761  0.2771 -0.3312
 9986SOL    HW131399   0.892   1.455   7.901 -1.2425 -1.0211 -0.7873
 9986SOL    HW231400   0.877   1.554   8.015 -0.1848  0.9086 -2.2577
 9987SOL     OW31401   3.609   0.989   7.400  0.1907 -0.0711 -0.1274
 9987SOL    HW131402   3.680   0.946   7.448  1.1620  1.8661  0.2553
 9987SOL    HW231403   3.648   1.068   7.364 -1.5624  0.5906 -0.6902
 9988SOL     OW31404   2.279   6.966   2.983 -0.0965 -0.1385 -0.2071
 9988SOL    HW131405   2.373   6.983   2.986  0.1282 -1.3336  1.4544
 9988SOL    HW231406   2.272   6.874   2.954 -0.6072 -0.6442  1.3945
 9989SOL     OW31407   5.009   7.220   9.130  0.0215 -0.2646  0.7570
 9989SOL    HW131408   5.078   7.181   9.077 -0.9079 -0.0563 -0.6870
 9989SOL    HW231409   5.045   7.304   9.159  0.8554 -0.7595  1.1777
 9990SOL     OW31410   5.132   4.260   3.859 -0.0378 -0.1369 -0.2815
 9990SOL    HW131411   5.074   4.334   3.877  0.3483 -0.2849  1.8304
 9990SOL    HW231412   5.214   4.300   3.831 -0.0855  0.2012  0.0638
 9991SOL     OW31413   7.199   0.730   5.076 -0.2887  0.3210  0.2437
 9991SOL    HW131414   7.169   0.803   5.131  0.5528 -0.2952  1.5669
 9991SOL    HW231415   7.164   0.652   5.118  1.5247 -0.2638  0.7548
 9992SOL     OW31416   3.143   1.614   1.327  0.0326  0.0722 -0.3779
 9992SOL    HW131417   3.111   1.601   1.237 -1.2254 -0.9437  0.1874
 9992SOL    HW231418   3.094   1.691   1.358  2.0334  1.7997 -1.2214
 9993SOL     OW31419   4.431   2.840   6.979  0.3002  0.6007  0.1505
 9993SOL    HW131420   4.509   2.880   6.941  0.0468  1.6501  0.6740
 9993SOL    HW231421   4.401   2.905   7.043 -0.6646 -0.0468  0.3643
 9994SOL     OW31422   0.769   1.901   8.854  0.3756  0.2228  0.3393
 9994SOL    HW131423   0.776   1.862   8.767  0.8106 -0.5996  0.7395
 9994SOL    HW231424   0.808   1.988   8.844  2.3844 -0.6520  0.2069
 9995SOL     OW31425   7.550   3.442  10.072  0.4134  0.2602  0.2586
 9995SOL    HW131426   7.471   3.389  10.080 -0.7137  1.8112 -0.0552
 9995SOL    HW231427   7.547   3.475   9.982  0.7355  1.3383  0.6282
 9996SOL     OW31428   3.245   7.209   9.431  0.3445 -0.2631  0.3456
 9996SOL    HW131429   3.255   7.183   9.523  2.5089  1.1821  0.5950
 9996SOL    HW231430   3.329   7.187   9.391 -0.3347 -0.2415 -1.1455
 9997SOL     OW31431   4.991   6.161  10.448  0.0895 -0.3149  0.1652
 9997SOL    HW131432   4.959   6.212  10.373  1.2608  0.4964  0.1970
 9997SOL    HW231433   4.943   6.078  10.443 -0.3629  0.0051 -1.0653
 9998SOL     OW31434   3.964   2.994   0.215 -0.2500 -0.3797  0.1994
 9998SOL    HW131435   3.886   2.986   0.270 -0.6238  1.3181 -0.0522
 9998SOL    HW231436   3.953   3.077   0.169  1.0734 -0.7620 -0.8574
 9999SOL     OW31437   6.560   4.033   9.226 -0.2934 -0.0085  0.7131
 9999SOL    HW131438   6.624   4.101   9.246  0.4107 -0.0943 -1.1037
 9999SOL    HW231439   6.581   3.961   9.286  0.9428  0.1944  0.5400
10000SOL     OW31440   4.486   6.143  10.433  0.4284 -0.0580  0.3617
10000SOL    HW131441   4.416   6.082  10.459  0.3490 -0.4386 -0.7104
10000SOL    HW231442   4.542   6.148  10.510 -1.7069  1.6555  1.9411
10001SOL     OW31443   3.751   0.443   0.438  0.1101 -0.0107 -0.4366
10001SOL    HW131444   3.672   0.418   0.485 -0.8071  1.6628 -1.0169
10001SOL    HW231445   3.733   0.530   0.404  2.0871  0.2826 -0.8813
10002SOL     OW31446   6.563   6.003   3.013 -0.1354  0.3625 -0.3590
10002SOL    HW131447   6.488   5.943   3.015  1.4441 -1.8678 -2.4313
10002SOL    HW231448   6.531   6.080   2.967 -1.1947 -0.5135 -1.1378
10003SOL     OW31449   1.847   3.218   4.223 -0.3189 -0.2493 -0.4376
10003SOL    HW131450   1.809   3.264   4.297 -0.9124 -1.6453  0.1498
10003SOL    HW231451   1.813   3.129   4.229  2.5454 -1.4576 -0.1807
10004SOL     OW31452   0.397   5.804   8.893  0.2479 -0.3129  0.2683
10004SOL    HW131453   0.467   5.867   8.911  2.2886 -2.1370 -0.8444
10004SOL    HW231454   0.317   5.849   8.920  1.7334  2.2095  0.7931
10005SOL     OW31455   3.391   5.746   2.401 -0.1953 -0.0624 -0.1973
10005SOL    HW131456   3.380   5.788   2.315 -0.9223  0.8049  0.2989
10005SOL    HW231457   3.318   5.684   2.406 -2.4415  2.4621  1.2255
10006SOL     OW31458   4.283   6.165   2.264  0.0632 -0.3372  0.1992
10006SOL    HW131459   4.320   6.153   2.352  0.8304  0.2687 -0.0367
10006SOL    HW231460   4.346   6.220   2.218  0.2103 -1.5348 -1.0932
10007SOL     OW31461   2.744   7.914  11.522 -0.2689 -0.1857  0.2599
10007SOL    HW131462   2.835   7.943  11.518 -0.7872  1.3515 -1.3023
10007SOL    HW231463   2.749   7.819  11.532  1.4875 -0.0959  0.4649
10008SOL     OW31464   3.478   7.476   8.791  0.8815  0.7422  0.4563
10008SOL    HW131465   3.503   7.568   8.792  0.9683  0.7171  0.5791
10008SOL    HW231466   3.558   7.429   8.768  0.9283  0.6703  0.7515
10009SOL     OW31467   6.857   3.968  12.223  0.1448 -0.0535  0.4621
10009SOL    HW131468   6.893   3.937  12.305  0.5692  2.7088  1.4148
10009SOL    HW231469   6.933   4.000  12.174 -0.4012  0.9992  0.2706
10010SOL     OW31470   5.386   3.732   0.743  0.0744 -0.1560 -0.4604
10010SOL    HW131471   5.474   3.729   0.707  0.4545  0.0174  0.4213
10010SOL    HW231472   5.364   3.825   0.746 -1.1476 -0.2890 -2.9874
10011SOL     OW31473   5.644   2.134  11.967 -0.1613  0.4203  0.1670
10011SOL    HW131474   5.657   2.223  12.001 -1.0189 -0.2455  2.3839
10011SOL    HW231475   5.693   2.078  12.028 -1.0055 -0.7718 -0.2249
10012SOL     OW31476   3.787   3.934   2.435  0.4370 -0.1041 -0.0636
10012SOL    HW131477   3.850   3.966   2.500 -0.3797  0.5891  0.4137
10012SOL    HW231478   3.821   3.966   2.351  0.1872  1.1917  0.3009
10013SOL     OW31479   0.377   0.151   0.419  0.8723  0.8694 -0.1157
10013SOL    HW131480   0.287   0.159   0.390  0.2258  0.5477  1.6497
10013SOL    HW231481   0.406   0.067   0.385  0.2392  0.6268 -0.0727
10014SOL     OW31482   2.587   2.593   5.591 -0.2364 -0.4386 -0.8626
10014SOL    HW131483   2.608   2.538   5.515 -0.8084  0.2954 -1.5717
10014SOL    HW231484   2.645   2.669   5.582 -0.6336 -0.1289 -0.8276
10015SOL     OW31485   6.980   0.043   6.865 -0.3786 -0.0971  0.1825
10015SOL    HW131486   7.010   0.134   6.871  0.7085 -0.4299 -0.0700
10015SOL    HW231487   6.885   0.049   6.878 -0.4885  1.1968 -0.9219
10016SOL     OW31488   5.189   0.392  11.119 -0.1379  0.1295  0.0066
10016SOL    HW131489   5.143   0.353  11.193 -0.0417  0.2960  0.1546
10016SOL    HW231490   5.152   0.480  11.111 -1.0805 -0.3396 -0.9688
10017SOL     OW31491   5.731   2.239   5.840 -0.3515 -0.3224 -0.3499
10017SOL    HW131492   5.719   2.146   5.825 -1.0064 -0.3460  0.2751
10017SOL    HW231493   5.780   2.270   5.764 -2.2713 -0.7071 -1.8074
10018SOL     OW31494   7.736   1.981   8.810  0.0075 -0.5109 -0.2878
10018SOL    HW131495   7.737   2.059   8.865 -1.5160 -2.1085  2.1619
10018SOL    HW231496   7.644   1.952   8.811  0.4209 -2.0209 -1.6283
10019SOL     OW31497   5.049   4.250   8.712  0.5381 -0.1735  0.6685
10019SOL    HW131498   4.987   4.186   8.677 -0.7473  1.1879  0.3484
10019SOL    HW231499   4.995   4.326   8.734  2.1356  1.2317 -0.0238
10020SOL     OW31500   7.038   3.915   9.348  0.0487  0.0755  0.6621
10020SOL    HW131501   6.955   3.878   9.317 -0.5786 -0.9845  3.3128
10020SOL    HW231502   7.101   3.843   9.340  0.2749  0.3017  0.3735
10021SOL     OW31503   1.731   4.096   3.967  0.8805  0.2955  0.2229
10021SOL    HW131504   1.793   4.036   4.009  0.7845  0.9313  1.3049
10021SOL    HW231505   1.697   4.046   3.892  0.3637 -1.2096  1.4113
10022SOL     OW31506   7.793   7.104  10.225 -0.0264  0.2277  0.1318
10022SOL    HW131507   7.860   7.154  10.178 -0.1670  0.7594  0.4846
10022SOL    HW231508   7.822   7.013  10.220  0.4035  0.3836 -0.2412
10023SOL     OW31509   5.895   1.896   9.450 -0.1456 -0.3255  0.5486
10023SOL    HW131510   5.840   1.892   9.372  1.2574  1.4576 -0.6325
10023SOL    HW231511   5.921   1.806   9.466 -1.2441 -0.8557 -0.4623
10024SOL     OW31512   2.200   0.425   1.960  0.2004 -0.3502  0.0649
10024SOL    HW131513   2.160   0.360   1.902 -0.8344  0.4893 -0.1936
10024SOL    HW231514   2.130   0.488   1.978  0.9995  0.3542  0.8153
10025SOL     OW31515   3.129   6.324   5.124  0.5826 -0.2440 -0.3790
10025SOL    HW131516   3.078   6.279   5.190  1.9689 -1.0559  0.1894
10025SOL    HW231517   3.154   6.407   5.165  0.9086 -0.4704 -0.1165
10026SOL     OW31518   6.602   5.914   3.324 -0.8077 -0.7539 -0.2279
10026SOL    HW131519   6.662   5.907   3.250 -0.7816  1.8902 -0.5521
10026SOL    HW231520   6.654   5.891   3.400  0.3346  0.4390 -0.6257
10027SOL     OW31521   4.891   5.266   7.218 -0.0271 -0.4186 -0.1156
10027SOL    HW131522   4.945   5.205   7.169  0.0800  0.8691 -1.6548
10027SOL    HW231523   4.953   5.329   7.255 -0.3058 -0.1316 -0.1364
10028SOL     OW31524   3.046   4.620   9.478  0.3259 -0.2106  0.6093
10028SOL    HW131525   3.064   4.536   9.436  0.8038 -0.0612  0.5033
10028SOL    HW231526   3.132   4.661   9.487  0.2092 -0.1606  1.5696
10029SOL     OW31527   2.033   5.449   2.418 -0.3800  0.0477  0.1277
10029SOL    HW131528   2.116   5.407   2.397 -0.9214 -0.9334 -0.1032
10029SOL    HW231529   2.041   5.474   2.510 -0.3345 -1.3066  0.5098
10030SOL     OW31530   3.277   1.154   6.280 -0.4595  0.6180  0.0719
10030SOL    HW131531   3.221   1.230   6.264 -0.3349  1.2907  2.5103
10030SOL    HW231532   3.244   1.116   6.361 -0.4970 -1.9866 -1.0457
10031SOL     OW31533   6.972   0.588   2.471 -0.0973 -0.0356 -0.0880
10031SOL    HW131534   7.046   0.561   2.526  0.5258  1.3287 -0.2062
10031SOL    HW231535   6.895   0.552   2.515  0.4561  0.3225  1.2318
10032SOL     OW31536   6.027   4.967   9.809  0.0381  0.3782 -0.1166
10032SOL    HW131537   5.931   4.962   9.807  0.1024 -1.0472 -1.2530
10032SOL    HW231538   6.053   4.886   9.854  0.7538 -0.3575 -1.7962
10033SOL     OW31539   3.656   0.563   2.904 -0.2670  0.4114 -0.8147
10033SOL    HW131540   3.615   0.559   2.990 -0.3001 -1.4853 -0.8569
10033SOL    HW231541   3.683   0.472   2.887  1.3700  1.0742 -2.0210
10034SOL     OW31542   0.135   5.358   2.607  0.2757 -0.0096 -0.2255
10034SOL    HW131543   0.122   5.397   2.694  0.8324  0.8923 -0.5205
10034SOL    HW231544   0.229   5.368   2.592  0.7983 -3.1399  0.4228
10035SOL     OW31545   7.824   4.240   8.210  0.4682 -0.2468 -0.1700
10035SOL    HW131546   7.761   4.211   8.276  2.2150 -2.1216  0.7934
10035SOL    HW231547   7.803   4.332   8.196 -2.2666 -0.6867  0.2878
10036SOL     OW31548   1.343   7.279   0.823  0.3854 -0.4551 -0.3053
10036SOL    HW131549   1.266   7.224   0.822 -2.3129  2.9253  1.1569
10036SOL    HW231550   1.374   7.276   0.913 -0.9585  1.6734  0.3051
10037SOL     OW31551   7.528   4.744   3.969 -0.2378  0.3480 -0.3707
10037SOL    HW131552   7.601   4.685   3.954  0.0104  0.4886  0.2777
10037SOL    HW231553   7.472   4.699   4.032  0.9974  1.6427  1.7681
10038SOL     OW31554   1.219   7.448  10.227 -0.2693  0.6646  0.1034
10038SOL    HW131555   1.142   7.393  10.211  0.1053  0.0983  0.2151
10038SOL    HW231556   1.187   7.537  10.217 -0.4244  0.4072 -2.2661
10039SOL     OW31557   7.218   7.608   5.738  0.5048  0.4419  0.1902
10039SOL    HW131558   7.240   7.528   5.787 -0.5418 -0.2343 -0.3908
10039SOL    HW231559   7.289   7.617   5.675 -0.3697 -1.2781 -1.1575
10040SOL     OW31560   7.221   6.763   0.235  0.4529  0.0198 -0.6624
10040SOL    HW131561   7.130   6.793   0.239 -0.5628 -2.6532 -1.3540
10040SOL    HW231562   7.235   6.717   0.317 -0.2729 -3.0409 -2.1148
10041SOL     OW31563   5.563   2.191   1.737 -0.2866  0.1938  0.0621
10041SOL    HW131564   5.577   2.241   1.656 -1.3609  0.7828  0.2257
10041SOL    HW231565   5.469   2.171   1.737  0.1850 -2.3763 -0.3002
10042SOL     OW31566   6.523   0.365   4.836 -0.1336 -0.0061  0.1923
10042SOL    HW131567   6.488   0.448   4.804 -0.6463  0.1777  1.1955
10042SOL    HW231568   6.618   0.376   4.831 -0.1685 -0.2542 -1.8861
10043SOL     OW31569   0.500   7.380   3.055 -0.7865 -0.2251  0.2059
10043SOL    HW131570   0.485   7.379   2.960 -0.4062 -0.8060  0.1461
10043SOL    HW231571   0.454   7.302   3.087 -2.5898  0.9870  0.7818
10044SOL     OW31572   0.894   3.032   7.061  1.2063 -0.0426 -0.5581
10044SOL    HW131573   0.814   2.990   7.031  1.1443 -0.0992 -0.3144
10044SOL    HW231574   0.865   3.117   7.096  1.4725  0.7823 -2.2135
10045SOL     OW31575   1.281   4.297  10.374  0.2909 -0.0479 -0.3673
10045SOL    HW131576   1.295   4.212  10.331  2.0037  0.0571 -0.0878
10045SOL    HW231577   1.219   4.278  10.444  1.9592 -1.4873  0.8180
10046SOL     OW31578   7.815   7.306  12.090 -0.2619  0.2409 -0.2191
10046SOL    HW131579   7.832   7.322  11.997  1.0256 -0.9606 -0.2184
10046SOL    HW231580   7.778   7.218  12.093  2.4101 -0.9620  0.5864
10047SOL     OW31581   2.164   5.442   6.053 -0.2812  0.0300 -0.5152
10047SOL    HW131582   2.242   5.423   6.000  1.0366 -1.2484  1.7241
10047SOL    HW231583   2.107   5.367   6.037  0.1564 -0.4047 -0.0796
10048SOL     OW31584   2.913   7.177   9.913  0.1839 -0.1072 -0.1344
10048SOL    HW131585   2.901   7.202   9.821 -0.5486 -0.3354 -0.1068
10048SOL    HW231586   2.887   7.255   9.962  1.1167  0.2090 -0.1277
10049SOL     OW31587   7.232   7.052  11.188 -0.0253  0.6316 -0.2025
10049SOL    HW131588   7.205   7.031  11.277 -0.2486  0.9130 -0.2033
10049SOL    HW231589   7.165   7.012  11.133  2.0592 -2.9438 -0.4793
10050SOL     OW31590   7.184   7.293   0.384 -0.2307 -0.2967  0.5627
10050SOL    HW131591   7.130   7.232   0.334 -0.4994 -0.2349  0.7778
10050SOL    HW231592   7.155   7.284   0.474 -0.6944  0.5731  0.5197
10051SOL     OW31593   5.459   0.402   1.107 -0.5949  0.1947 -0.4049
10051SOL    HW131594   5.519   0.438   1.042  0.1979  0.8853  0.6708
10051SOL    HW231595   5.378   0.386   1.059 -0.4376  1.8680 -1.3143
10052SOL     OW31596   0.816   3.539   2.478 -0.3738  0.5596 -0.0833
10052SOL    HW131597   0.889   3.518   2.421  0.0175 -0.3718  0.7242
10052SOL    HW231598   0.747   3.478   2.452  0.3088 -0.9118  1.3785
10053SOL     OW31599   3.079   7.838   7.817  0.0961  0.4454 -0.1916
10053SOL    HW131600   3.012   7.775   7.845 -0.1801  0.6805 -0.3116
10053SOL    HW231601   3.141   7.785   7.767 -1.7302  0.7104 -2.9962
10054SOL     OW31602   2.880   2.565   1.485  0.0003 -0.1324 -0.0995
10054SOL    HW131603   2.906   2.535   1.398  0.6833  1.1439 -0.3611
10054SOL    HW231604   2.784   2.569   1.481  0.0080 -0.4011 -0.6737
10055SOL     OW31605   2.338   0.815   2.063 -0.8390  0.5678 -0.1652
10055SOL    HW131606   2.382   0.826   2.147 -4.1822 -0.0831  1.8393
10055SOL    HW231607   2.318   0.905   2.035  0.1624  0.7802 -0.2308
10056SOL     OW31608   2.354   3.294   8.791  0.5411 -0.3365  0.2282
10056SOL    HW131609   2.322   3.337   8.870  0.9661  0.0037  0.2199
10056SOL    HW231610   2.448   3.316   8.788  0.4777 -0.1185 -0.5075
10057SOL     OW31611   0.998   1.601   3.679  0.3598 -0.5298  0.4131
10057SOL    HW131612   1.032   1.512   3.687 -0.8464 -1.0888 -0.3879
10057SOL    HW231613   0.905   1.590   3.658  0.1063  0.9214  0.6500
10058SOL     OW31614   4.763   3.326  11.405  0.2317  0.2064 -0.6422
10058SOL    HW131615   4.729   3.378  11.478  0.2148  0.8305 -1.0854
10058SOL    HW231616   4.800   3.391  11.345  3.0088 -0.4893  0.1967
10059SOL     OW31617   1.184   4.162  10.704  0.2611 -0.5993 -0.1701
10059SOL    HW131618   1.160   4.071  10.685  0.5169 -0.2526 -2.5439
10059SOL    HW231619   1.275   4.158  10.733  0.2431 -1.1042 -0.1743
10060SOL     OW31620   7.441   2.538   0.562 -0.3410 -0.7980 -0.4218
10060SOL    HW131621   7.419   2.617   0.512  2.1170 -0.7844 -1.6094
10060SOL    HW231622   7.534   2.526   0.548 -0.2289 -2.7444  1.4947
10061SOL     OW31623   5.184   3.459   1.123  0.1975 -0.0131 -0.3380
10061SOL    HW131624   5.268   3.422   1.152 -0.2491  0.2054  1.3427
10061SOL    HW231625   5.189   3.552   1.146  0.2721  0.4399 -2.1038
10062SOL     OW31626   6.944   5.463   5.354 -0.5520  0.6571 -0.3683
10062SOL    HW131627   7.008   5.396   5.376 -0.9175 -0.5859 -2.7923
10062SOL    HW231628   6.861   5.416   5.348 -1.1115  1.6365 -0.4810
10063SOL     OW31629   4.095   4.106   8.932 -0.3278  0.0721  0.5280
10063SOL    HW131630   4.075   4.184   8.881  1.0714  1.0416  1.3982
10063SOL    HW231631   4.051   4.120   9.016  1.0189  0.5672  1.1676
10064SOL     OW31632   0.998   1.247   9.420 -0.1851 -0.1447 -0.4763
10064SOL    HW131633   0.977   1.245   9.513  0.5512 -2.4453 -0.2770
10064SOL    HW231634   1.008   1.340   9.399  1.4991  0.3932  2.1812
10065SOL     OW31635   2.904   7.919   4.979 -0.1609 -0.8688 -0.0503
10065SOL    HW131636   2.911   7.826   5.001  1.3014 -0.8537 -0.4075
10065SOL    HW231637   2.905   7.964   5.064 -0.4759 -1.1480  0.1038
10066SOL     OW31638   0.537   1.939   6.275  0.6626 -0.1996  0.0864
10066SOL    HW131639   0.472   1.888   6.227  0.3109 -0.4624  0.8230
10066SOL    HW231640   0.599   1.874   6.308  1.0279  0.0009 -0.1965
10067SOL     OW31641   1.227   5.924   1.284 -0.3543 -0.1955  0.4420
10067SOL    HW131642   1.311   5.916   1.237  0.2035 -0.6928  1.4968
10067SOL    HW231643   1.170   5.859   1.242 -1.2352  2.1226 -2.2911
10068SOL     OW31644   2.875   2.642   0.094  0.6201 -0.1288  0.0066
10068SOL    HW131645   2.947   2.589   0.059  0.5789 -0.2012  0.0296
10068SOL    HW231646   2.796   2.602   0.057  0.5609 -0.3609  0.3743
10069SOL     OW31647   1.535   6.366   2.055 -0.9457  0.4507 -0.7215
10069SOL    HW131648   1.456   6.405   2.094 -0.5336  0.7373 -0.1688
10069SOL    HW231649   1.597   6.438   2.051 -0.9116  0.3777 -1.7344
10070SOL     OW31650   5.433   0.763  10.598 -0.1905 -0.3329  0.2199
10070SOL    HW131651   5.411   0.846  10.642 -1.7258 -0.5904  0.0057
10070SOL    HW231652   5.485   0.715  10.662 -0.8997  0.0308  1.1032
10071SOL     OW31653   1.516   0.694   9.310  0.5890  0.0945  0.0022
10071SOL    HW131654   1.535   0.607   9.346 -0.5510 -0.8666 -1.5375
10071SOL    HW231655   1.426   0.686   9.278  0.3982  1.9286  0.0111
10072SOL     OW31656   6.730   4.718   8.796  0.5072  0.4069 -0.4071
10072SOL    HW131657   6.752   4.748   8.885  1.6364 -0.1846 -0.4701
10072SOL    HW231658   6.669   4.783   8.763  0.2443  0.7578  0.7295
10073SOL     OW31659   7.364   2.174   5.528 -0.0135 -0.0042 -0.5511
10073SOL    HW131660   7.364   2.254   5.581 -0.0995  0.3969 -1.1536
10073SOL    HW231661   7.448   2.132   5.548 -0.4059 -0.3098  0.5693
10074SOL     OW31662   0.454   2.522   3.238 -0.1490 -0.1063  0.2370
10074SOL    HW131663   0.544   2.489   3.230 -0.8401 -2.1620  0.2950
10074SOL    HW231664   0.412   2.463   3.301 -1.0245  2.0303  1.7365
10075SOL     OW31665   6.101   6.973   9.768  0.5138  0.0168 -0.5283
10075SOL    HW131666   6.074   6.921   9.844  0.7671  1.8679  0.9013
10075SOL    HW231667   6.092   6.913   9.694 -2.0340 -1.1851  0.6075
10076SOL     OW31668   3.875   1.182   4.392 -0.2668 -0.1177 -0.1997
10076SOL    HW131669   3.862   1.100   4.441  0.7917  1.9711  4.0710
10076SOL    HW231670   3.787   1.215   4.377 -0.6498 -1.0144 -0.0258
10077SOL     OW31671   1.367   1.032   0.474  0.7543 -0.2574 -0.3533
10077SOL    HW131672   1.307   1.097   0.437  0.1545  0.7160  2.1374
10077SOL    HW231673   1.452   1.057   0.439  0.1192  0.0816 -1.7246
10078SOL     OW31674   0.060   0.834  10.400 -0.2183 -0.0631  0.2069
10078SOL    HW131675   0.059   0.783  10.481 -1.0161 -1.4812 -0.6563
10078SOL    HW231676   0.129   0.792  10.347 -0.8927 -0.2878 -0.5169
10079SOL     OW31677   5.946   4.128   5.823 -0.2671  0.1492  0.2981
10079SOL    HW131678   5.958   4.093   5.911  0.2905 -0.7707 -0.1338
10079SOL    HW231679   5.867   4.084   5.791 -0.0199 -0.1115  0.0476
10080SOL     OW31680   2.351   7.143   3.927  0.0320 -0.0605 -0.4689
10080SOL    HW131681   2.285   7.186   3.873  0.6295  0.2525 -0.9661
10080SOL    HW231682   2.420   7.118   3.865 -0.6151 -2.4172 -0.3359
10081SOL     OW31683   2.140   0.589   2.925 -0.2873 -0.1564  0.0824
10081SOL    HW131684   2.081   0.586   2.850 -0.9360 -0.0418  0.5853
10081SOL    HW231685   2.190   0.670   2.914 -0.5236 -0.0398 -0.1200
10082SOL     OW31686   1.351   0.472   0.416 -0.0371 -0.3537 -0.0662
10082SOL    HW131687   1.276   0.414   0.431 -0.1066 -0.8862 -2.1145
10082SOL    HW231688   1.427   0.421   0.440 -0.2786  0.2590  2.2305
10083SOL     OW31689   7.556   7.425   0.389  0.2240  0.8512 -0.0433
10083SOL    HW131690   7.563   7.518   0.412 -1.3526  0.9283  0.2858
10083SOL    HW231691   7.463   7.414   0.366  0.6009 -0.4333 -1.0203
10084SOL     OW31692   6.012   2.575   1.729 -0.0585 -0.1489  0.3974
10084SOL    HW131693   6.093   2.531   1.702  0.6931  0.5746  1.3922
10084SOL    HW231694   6.009   2.654   1.675 -0.3961 -0.4429 -0.0215
10085SOL     OW31695   5.864   7.695   8.886  0.5208  0.0304 -0.1772
10085SOL    HW131696   5.792   7.685   8.949 -0.4978 -3.1224 -1.6004
10085SOL    HW231697   5.831   7.760   8.823 -0.9133 -0.9058 -0.4618
10086SOL     OW31698   4.212   5.644   0.500  0.1809  0.1114  0.5326
10086SOL    HW131699   4.131   5.619   0.456  0.8250 -1.6546  0.2566
10086SOL    HW231700   4.209   5.598   0.584  0.4749  0.7919  0.9250
10087SOL     OW31701   0.641   0.888  11.759 -0.6386 -0.1186  0.5642
10087SOL    HW131702   0.598   0.949  11.700  0.6886  1.6699  1.3638
10087SOL    HW231703   0.616   0.917  11.847  1.3172  0.3485  1.0119
10088SOL     OW31704   2.317   7.672   1.720  0.1006  0.3358  0.3133
10088SOL    HW131705   2.244   7.615   1.745 -0.0630  0.7316  0.7458
10088SOL    HW231706   2.362   7.691   1.802  0.6025  0.2154  0.0657
10089SOL     OW31707   2.684   5.295   4.422  0.0413  0.4611  0.1117
10089SOL    HW131708   2.594   5.326   4.426 -0.4295 -0.6710 -1.0243
10089SOL    HW231709   2.708   5.279   4.513 -0.1814  2.6644  0.6200
10090SOL     OW31710   0.010   6.640   2.031 -0.5416  0.0522  0.0228
10090SOL    HW131711   0.020   6.694   1.952 -2.2938  0.0063 -0.2852
10090SOL    HW231712  -0.049   6.570   2.003 -1.6568  0.3559  1.5193
10091SOL     OW31713   1.943   4.625  10.596  0.2271 -0.0837  0.3940
10091SOL    HW131714   1.931   4.706  10.548 -1.6150 -0.2557  0.4940
10091SOL    HW231715   2.014   4.643  10.658 -0.6263  1.6828  0.9099
10092SOL     OW31716   4.466   0.377   8.144  0.6683 -0.0244 -0.2916
10092SOL    HW131717   4.505   0.385   8.056  0.7244 -1.2825 -0.3888
10092SOL    HW231718   4.521   0.434   8.199  0.9463  0.3722 -0.9605
10093SOL     OW31719   5.909   1.068   5.386  0.2123  0.7257  0.3607
10093SOL    HW131720   5.921   1.136   5.453  1.8466 -0.0927  0.9615
10093SOL    HW231721   5.817   1.045   5.391  0.4608 -0.0209  3.1039
10094SOL     OW31722   0.131   2.689   0.614 -0.2610 -0.0913  0.1822
10094SOL    HW131723   0.093   2.765   0.658 -3.9406 -1.3216 -0.4982
10094SOL    HW231724   0.138   2.623   0.683 -0.2905 -0.1519  0.1278
10095SOL     OW31725   4.401   5.596   8.214 -0.4717 -0.3743  0.4194
10095SOL    HW131726   4.471   5.649   8.176  0.0908 -1.4358 -0.1004
10095SOL    HW231727   4.368   5.648   8.287 -0.6962  1.1542 -0.7182
10096SOL     OW31728   2.118   0.083   2.337 -0.6014 -0.8698 -0.4025
10096SOL    HW131729   2.140   0.169   2.303 -0.7631 -0.4946  0.4355
10096SOL    HW231730   2.107   0.029   2.259  0.6850 -0.4340 -0.9085
10097SOL     OW31731   3.352   1.051  10.882 -0.8341 -0.4173 -0.3838
10097SOL    HW131732   3.316   1.071  10.795 -0.7371  0.0345 -0.3236
10097SOL    HW231733   3.353   1.135  10.927 -0.1783 -0.5178 -0.2040
10098SOL     OW31734   1.851   7.912   0.700  0.6213  0.1164 -0.1255
10098SOL    HW131735   1.878   7.834   0.652  0.6994 -0.9463  1.5851
10098SOL    HW231736   1.761   7.894   0.727  0.1298  1.2460 -0.9073
10099SOL     OW31737   6.483   4.618   3.137 -0.0235 -0.5152 -0.1692
10099SOL    HW131738   6.534   4.695   3.113 -0.0791  0.3351  2.1742
10099SOL    HW231739   6.535   4.543   3.107  0.5370  0.3857 -1.5317
10100SOL     OW31740   2.871   1.151   2.718  0.3125  0.9689  0.4393
10100SOL    HW131741   2.936   1.174   2.784  0.4529  0.8492  0.3447
10100SOL    HW231742   2.814   1.088   2.762  1.0545  0.0431  0.1168
10101SOL     OW31743   2.666   6.502   3.647  0.2972  0.3631  0.0752
10101SOL    HW131744   2.749   6.473   3.610  0.2220  0.9394 -0.5792
10101SOL    HW231745   2.599   6.457   3.595  0.1732  1.8514 -1.1533
10102SOL     OW31746   1.523   0.511   8.756  0.1742  0.0095  0.7709
10102SOL    HW131747   1.561   0.487   8.841 -2.5555 -0.2717  2.0045
10102SOL    HW231748   1.598   0.515   8.697  2.6815  3.0337  3.7231
10103SOL     OW31749   4.463   4.527   9.734  0.0596 -0.5791 -0.1373
10103SOL    HW131750   4.536   4.480   9.774 -0.9846 -1.1377  1.1857
10103SOL    HW231751   4.410   4.459   9.694 -0.4370 -0.3342  0.0939
10104SOL     OW31752   5.356   5.097   6.895  0.4827 -0.3699 -0.1008
10104SOL    HW131753   5.397   5.100   6.808 -1.7612 -1.0591 -1.2457
10104SOL    HW231754   5.328   5.007   6.905 -1.0534  0.1505  0.4681
10105SOL     OW31755   0.402   4.980   4.955 -0.0894  0.5040 -0.2837
10105SOL    HW131756   0.372   4.898   4.916 -0.9039  0.9943 -0.7301
10105SOL    HW231757   0.493   4.963   4.980  0.0885 -0.1940 -1.3402
10106SOL     OW31758   3.244   1.916   0.274 -0.2070  0.0155  0.4737
10106SOL    HW131759   3.237   1.948   0.363  1.0304 -0.2342  0.6852
10106SOL    HW231760   3.218   1.990   0.219  0.1391  0.5474  1.0182
10107SOL     OW31761   0.315   3.005   9.645 -0.0852 -1.0861 -0.0761
10107SOL    HW131762   0.343   3.028   9.556 -1.4293 -0.1970 -0.3069
10107SOL    HW231763   0.396   2.994   9.694  0.7179 -2.4883 -1.6124
10108SOL     OW31764   7.044   5.163   3.599  0.2057 -0.1246 -0.4272
10108SOL    HW131765   7.040   5.089   3.659 -3.6849  0.9152  0.9047
10108SOL    HW231766   7.131   5.200   3.612  0.6589 -1.8585  2.2074
10109SOL     OW31767   6.465   5.023   3.155  0.4761  0.8357  0.0929
10109SOL    HW131768   6.520   4.945   3.143 -1.5862 -0.6285 -0.4670
10109SOL    HW231769   6.452   5.056   3.066 -0.6862  0.2836  0.0329
10110SOL     OW31770   4.733   3.537   3.743 -0.5858  0.6577  0.3973
10110SOL    HW131771   4.794   3.611   3.743  2.2333 -1.4824 -0.5484
10110SOL    HW231772   4.728   3.509   3.652 -2.2885  0.1562  0.6062
10111SOL     OW31773   5.138   1.074   9.404 -0.1409  0.3272 -0.4114
10111SOL    HW131774   5.213   1.030   9.442  0.2906  0.8558 -0.6335
10111SOL    HW231775   5.125   1.032   9.319  1.0436  1.4217 -1.1722
10112SOL     OW31776   0.115   2.264   4.639 -0.0855 -0.4736 -0.0524
10112SOL    HW131777   0.064   2.231   4.712 -1.3677 -0.6363 -0.9939
10112SOL    HW231778   0.130   2.357   4.660 -2.2998  0.0576 -0.5472
10113SOL     OW31779   6.816   2.767   3.299 -0.8308 -0.1193 -0.0568
10113SOL    HW131780   6.874   2.786   3.225 -2.1592  1.6374 -0.6965
10113SOL    HW231781   6.873   2.725   3.364  0.8442  0.3126 -1.1924
10114SOL     OW31782   4.696   0.803   2.653 -0.3122 -0.4906 -0.2195
10114SOL    HW131783   4.641   0.727   2.630  0.0868 -0.8856  0.1120
10114SOL    HW231784   4.755   0.813   2.578 -0.9557  0.0554 -0.6638
10115SOL     OW31785   5.665   5.192  11.371  0.4891  0.8017 -0.2222
10115SOL    HW131786   5.577   5.154  11.370  0.2643  1.2878 -2.1019
10115SOL    HW231787   5.659   5.264  11.434 -0.3027  0.5129  0.0502
10116SOL     OW31788   0.545   0.091   7.739  0.0820 -0.2890  0.2693
10116SOL    HW131789   0.626   0.133   7.769 -0.2733  0.5648  0.0727
10116SOL    HW231790   0.476   0.151   7.767 -0.3164  0.1801 -1.5776
10117SOL     OW31791   3.827   2.270   0.682 -0.3812 -0.1859  0.5164
10117SOL    HW131792   3.895   2.207   0.657 -0.2525  0.3258 -0.4840
10117SOL    HW231793   3.801   2.311   0.599  0.0207  1.5708  1.2295
10118SOL     OW31794   6.389   4.002   7.926 -0.1676  0.2623  0.0501
10118SOL    HW131795   6.400   4.046   8.010  0.0384  0.6923 -0.1955
10118SOL    HW231796   6.433   3.917   7.937  1.5719  1.0747 -0.2091
10119SOL     OW31797   6.555   3.246   9.389 -0.4742 -0.4101  0.1547
10119SOL    HW131798   6.552   3.262   9.484  1.3152  1.5893 -0.0212
10119SOL    HW231799   6.482   3.296   9.354  0.8203  1.7446  0.2839
10120SOL     OW31800   0.554   1.182  12.094 -0.0633  0.1018  0.2322
10120SOL    HW131801   0.557   1.088  12.076  0.8875 -0.2315  1.9328
10120SOL    HW231802   0.466   1.209  12.067 -0.2604 -1.2290 -0.5006
10121SOL     OW31803   1.637   3.935   2.560  0.2668  0.0414 -0.2916
10121SOL    HW131804   1.587   3.943   2.641  2.8872  1.4107  1.2929
10121SOL    HW231805   1.683   4.018   2.551  1.4686 -0.7596 -2.2362
10122SOL     OW31806   5.852   6.337   9.010 -0.5097 -0.4010 -0.5168
10122SOL    HW131807   5.893   6.414   9.051  1.4394 -0.5818 -1.9625
10122SOL    HW231808   5.832   6.366   8.921 -0.1153 -1.4481 -0.9521
10123SOL     OW31809   0.197   0.880   1.220 -0.6954  0.1927  0.0195
10123SOL    HW131810   0.150   0.899   1.301 -0.7392 -0.4381  0.1425
10123SOL    HW231811   0.274   0.937   1.224 -0.5535 -0.0351  0.6339
10124SOL     OW31812   1.603   0.908   6.179  0.0568 -0.3982  0.2812
10124SOL    HW131813   1.699   0.906   6.188 -0.0032  0.3429  1.2351
10124SOL    HW231814   1.584   0.996   6.148 -0.3750 -0.2221  1.0171
10125SOL     OW31815   7.330   0.202   7.025 -0.3040  0.2290 -0.6481
10125SOL    HW131816   7.235   0.212   7.033 -0.1400  1.3541  0.2564
10125SOL    HW231817   7.361   0.290   7.001  0.3775 -0.4802 -2.5161
10126SOL     OW31818   3.341   1.723   0.998  0.2820  0.2495  0.0818
10126SOL    HW131819   3.420   1.739   0.947  0.2169  0.8128  0.1499
10126SOL    HW231820   3.363   1.753   1.086 -0.0503  0.5393  0.0701
10127SOL     OW31821   7.664   3.432   7.569 -0.1242  0.3088  0.5112
10127SOL    HW131822   7.745   3.482   7.568 -0.4629  0.8639  0.5602
10127SOL    HW231823   7.597   3.495   7.597 -0.8939  0.3294 -1.2377
10128SOL     OW31824   5.853   4.989   2.826 -0.0014  0.1613 -0.1048
10128SOL    HW131825   5.824   5.073   2.791 -0.6285 -0.1737 -0.4155
10128SOL    HW231826   5.776   4.932   2.816 -0.2785  0.0967  1.9680
10129SOL     OW31827   7.297   4.516   7.343 -0.0484 -0.1734 -0.1297
10129SOL    HW131828   7.373   4.465   7.317 -0.8573 -1.9414  0.7969
10129SOL    HW231829   7.282   4.491   7.435 -0.6954  1.4784  0.2447
10130SOL     OW31830   7.557   1.281   6.641 -0.2172 -0.1724 -0.1182
10130SOL    HW131831   7.483   1.291   6.581  0.5019  0.9726 -0.8493
10130SOL    HW231832   7.543   1.349   6.707  0.9121  1.0348 -1.0699
10131SOL     OW31833   0.594   7.597  11.299  0.0437 -0.4731  0.2430
10131SOL    HW131834   0.615   7.504  11.290  0.8882 -0.2838  0.1337
10131SOL    HW231835   0.556   7.605  11.386  0.0370 -0.9069  0.2835
10132SOL     OW31836   1.565   4.358   9.228  0.4003  0.2034 -0.4212
10132SOL    HW131837   1.491   4.415   9.250 -0.0663  0.6778 -2.9650
10132SOL    HW231838   1.539   4.271   9.259 -0.7060  0.5964 -0.2227
10133SOL     OW31839   7.078   6.220   1.278 -0.1392 -0.0120 -0.0109
10133SOL    HW131840   7.156   6.251   1.232 -0.2494  0.2250 -0.0402
10133SOL    HW231841   7.016   6.293   1.273 -0.1203  0.0526  0.5920
10134SOL     OW31842   6.472   3.685   2.525  0.2685 -0.1583  0.6380
10134SOL    HW131843   6.550   3.654   2.480  0.8128 -0.8205  1.9639
10134SOL    HW231844   6.461   3.625   2.599 -1.3641  0.0632  0.6284
10135SOL     OW31845   0.712   2.871   1.638  0.1104  0.4256  0.2204
10135SOL    HW131846   0.707   2.777   1.655 -2.2714  0.4085 -0.2631
10135SOL    HW231847   0.746   2.907   1.720  1.4402 -0.8534  0.2825
10136SOL     OW31848   2.427   7.375   5.014 -0.0718 -0.0569  0.5687
10136SOL    HW131849   2.474   7.342   4.937 -0.1815 -0.8608  0.8401
10136SOL    HW231850   2.491   7.369   5.085 -0.5172 -0.9830  0.9023
10137SOL     OW31851   7.480   0.085   4.315  0.1247 -0.4676 -0.1621
10137SOL    HW131852   7.514   0.010   4.266 -0.2414 -1.1448  0.5838
10137SOL    HW231853   7.508   0.162   4.266  1.2860 -1.0654 -0.4529
10138SOL     OW31854   4.873   3.870   2.883 -0.0327  0.4646 -0.3633
10138SOL    HW131855   4.873   3.944   2.944 -3.1609 -0.9775  1.6947
10138SOL    HW231856   4.948   3.817   2.909 -0.3937  0.6927  1.2611
10139SOL     OW31857   7.755   6.443   4.083  0.0543  0.4452  0.0520
10139SOL    HW131858   7.734   6.366   4.136  1.4688  0.1153  0.1840
10139SOL    HW231859   7.716   6.424   3.998 -0.2151 -0.0984  0.2873
10140SOL     OW31860   3.365   3.467   1.520  0.2650 -0.0773 -0.1393
10140SOL    HW131861   3.363   3.432   1.431 -0.5940 -0.1695 -0.0880
10140SOL    HW231862   3.458   3.470   1.542  0.4290 -1.0036 -0.6677
10141SOL     OW31863   1.877   3.007   3.847 -0.2633  0.5815  0.6517
10141SOL    HW131864   1.965   3.035   3.823 -0.5080  0.5831 -0.2982
10141SOL    HW231865   1.889   2.922   3.888  0.0976  0.1246 -0.3750
10142SOL     OW31866   5.593   7.869   0.352  0.6573 -0.0920 -0.3017
10142SOL    HW131867   5.655   7.823   0.297 -0.2507  1.7129 -3.0142
10142SOL    HW231868   5.565   7.803   0.416  3.8425 -1.4733 -0.1426
10143SOL     OW31869   3.660   5.680   8.641 -0.1049  0.6859  0.2225
10143SOL    HW131870   3.695   5.675   8.730 -0.2373  0.5140  0.2649
10143SOL    HW231871   3.629   5.591   8.623  0.9619  0.4231 -0.4228
10144SOL     OW31872   3.341   1.224   4.771  0.2699  0.2305  0.1490
10144SOL    HW131873   3.252   1.230   4.807 -0.0502  1.4499 -0.7870
10144SOL    HW231874   3.341   1.143   4.720 -0.4773  0.4708 -0.2530
10145SOL     OW31875   5.989   4.971  12.127 -0.5357  0.3050  0.1264
10145SOL    HW131876   6.036   5.006  12.202  0.7804  0.0576 -0.5582
10145SOL    HW231877   6.016   4.879  12.122  0.0887  0.5377 -1.1523
10146SOL     OW31878   0.395   2.640   8.414  0.5925 -0.1292  0.3808
10146SOL    HW131879   0.474   2.589   8.393  0.9986 -0.4649  2.4890
10146SOL    HW231880   0.332   2.575   8.444  0.2118  0.3468  0.6239
10147SOL     OW31881   7.918   1.175  10.507 -0.0434  0.2305  0.2582
10147SOL    HW131882   7.886   1.174  10.597 -0.7826 -0.9353 -0.0006
10147SOL    HW231883   7.953   1.087  10.492  1.5272  0.8809 -0.1111
10148SOL     OW31884   2.699   7.227   3.381 -0.5151 -0.2074  0.2306
10148SOL    HW131885   2.668   7.149   3.336 -0.5430 -0.4226  0.6168
10148SOL    HW231886   2.765   7.264   3.322  0.6042 -1.3617  0.7021
10149SOL     OW31887   0.923   6.282   4.546 -0.6101  0.3702  0.2217
10149SOL    HW131888   0.887   6.258   4.631  1.1432  0.4002  1.0177
10149SOL    HW231889   0.847   6.313   4.495 -1.2916  3.6710  2.8778
10150SOL     OW31890   7.071   1.538  11.210  0.0294  0.1202  0.3426
10150SOL    HW131891   6.998   1.584  11.250 -0.0012  1.3087 -0.9750
10150SOL    HW231892   7.105   1.480  11.278 -1.9437 -0.2441  1.0539
10151SOL     OW31893   3.477   1.354   6.526  0.1125 -0.0768 -0.2992
10151SOL    HW131894   3.518   1.313   6.602  0.2399  1.5427  0.5486
10151SOL    HW231895   3.385   1.329   6.532  0.2061 -0.3242  0.1433
10152SOL     OW31896   7.402   0.599   7.603 -0.0771 -0.3592  0.2262
10152SOL    HW131897   7.389   0.504   7.605 -0.5751 -0.2902  1.4127
10152SOL    HW231898   7.429   0.621   7.692 -1.0838  0.7439  0.2894
10153SOL     OW31899   7.224   1.139   4.528  0.1440  0.0971  0.7772
10153SOL    HW131900   7.263   1.052   4.520 -0.3149 -0.0124 -0.4104
10153SOL    HW231901   7.192   1.142   4.619  2.2769 -0.0537  1.5821
10154SOL     OW31902   1.117   3.977   7.943 -0.1514 -0.1480  0.0363
10154SOL    HW131903   1.194   3.957   7.996  0.6912 -0.8446 -1.3798
10154SOL    HW231904   1.110   4.072   7.945 -0.7924 -0.1895  2.2303
10155SOL     OW31905   3.083   0.858   1.207 -0.0315 -0.4560  0.3446
10155SOL    HW131906   3.083   0.825   1.118  2.3488 -1.7012  0.7232
10155SOL    HW231907   3.130   0.792   1.258 -0.5671  0.6164  2.3683
10156SOL     OW31908   4.678   0.566  10.843  0.6867 -0.7941  0.1965
10156SOL    HW131909   4.654   0.654  10.816 -0.5643 -1.2760 -0.3352
10156SOL    HW231910   4.729   0.531  10.770 -0.9363 -1.3598 -0.7315
10157SOL     OW31911   6.907   4.836   9.718  0.3791 -0.5894  0.0519
10157SOL    HW131912   6.876   4.746   9.705 -0.1839 -0.5355  0.9594
10157SOL    HW231913   6.846   4.890   9.667 -0.3928 -0.5743  0.9751
10158SOL     OW31914   5.759   0.169   1.755  0.0152 -0.2081  0.2275
10158SOL    HW131915   5.695   0.186   1.687  1.2579  0.9752 -0.6907
10158SOL    HW231916   5.844   0.191   1.716  0.9210 -0.9402  1.6570
10159SOL     OW31917   6.165   3.091   8.897 -0.4719  0.1437  0.0680
10159SOL    HW131918   6.246   3.052   8.867  0.0799  0.8338  0.6145
10159SOL    HW231919   6.192   3.153   8.965 -1.3455  1.2197 -0.5367
10160SOL     OW31920   1.180   2.595   6.493 -0.2933  0.0294 -0.2660
10160SOL    HW131921   1.188   2.525   6.427  0.4341  0.1977 -0.3605
10160SOL    HW231922   1.107   2.567   6.548  0.3147 -1.0631  0.0045
10161SOL     OW31923   2.328   2.172   7.058  0.1413 -0.0897 -0.0396
10161SOL    HW131924   2.253   2.231   7.069 -1.3468 -1.6664 -1.1437
10161SOL    HW231925   2.381   2.186   7.136 -2.3737 -0.3852  1.8552
10162SOL     OW31926   4.024   0.384   0.431 -0.3647 -0.1242 -0.7545
10162SOL    HW131927   4.028   0.438   0.509 -1.0041 -1.3030  0.1254
10162SOL    HW231928   3.931   0.377   0.410 -0.1990  0.1830 -1.6246
10163SOL     OW31929   6.863   5.233  12.227  0.5030 -0.1238  0.2126
10163SOL    HW131930   6.793   5.211  12.289  1.3679  0.4208  1.4190
10163SOL    HW231931   6.892   5.321  12.253 -0.7894  1.2492 -2.5522
10164SOL     OW31932   6.624   2.648   4.315 -0.6360 -0.1113  0.0740
10164SOL    HW131933   6.703   2.669   4.265 -1.5397  1.7585 -0.6500
10164SOL    HW231934   6.599   2.561   4.284  1.1135 -0.7741  0.3558
10165SOL     OW31935   7.374   3.717   3.967  0.7104 -0.3417  0.0551
10165SOL    HW131936   7.460   3.726   3.927 -0.0670 -2.2626 -2.3212
10165SOL    HW231937   7.314   3.708   3.893 -1.7140  1.8145  1.5841
10166SOL     OW31938   4.169   1.907   0.242  0.2218 -0.2632  0.0536
10166SOL    HW131939   4.183   1.822   0.202  1.1648 -0.4167  0.6640
10166SOL    HW231940   4.197   1.896   0.333  1.5953  1.0146 -0.1729
10167SOL     OW31941   4.745   0.744   8.320 -0.5306 -0.0571  0.6909
10167SOL    HW131942   4.697   0.760   8.239 -1.4804 -2.0820  0.8020
10167SOL    HW231943   4.708   0.806   8.383  0.8755  2.2218 -0.5630
10168SOL     OW31944   2.034   5.742   1.980 -0.0733  0.0215  0.0989
10168SOL    HW131945   1.964   5.726   2.044 -0.4343  0.9959 -0.0359
10168SOL    HW231946   2.115   5.735   2.031 -0.2511 -1.2982  0.2170
10169SOL     OW31947   0.458   1.345   1.350 -0.0108 -0.1791 -0.1273
10169SOL    HW131948   0.522   1.280   1.322  1.3098  0.5182  1.1884
10169SOL    HW231949   0.414   1.372   1.269  2.1925  0.2234 -1.2531
10170SOL     OW31950   3.163   6.434   1.650  0.0426  0.4301 -0.4592
10170SOL    HW131951   3.164   6.522   1.612  0.8138  0.1707 -1.0514
10170SOL    HW231952   3.144   6.376   1.577  0.1367  0.0470 -0.1837
10171SOL     OW31953   7.739   4.834   2.876 -0.2892 -0.5940 -0.0804
10171SOL    HW131954   7.821   4.785   2.869 -0.2534 -1.0216  2.4995
10171SOL    HW231955   7.697   4.822   2.791  3.1717  1.3361 -2.3104
10172SOL     OW31956   3.488   0.524   5.906  0.4753  0.4172 -0.2705
10172SOL    HW131957   3.455   0.593   5.963 -0.1144 -0.2809  0.2522
10172SOL    HW231958   3.573   0.556   5.876  0.0502  1.5247 -0.3418
10173SOL     OW31959   6.482   4.231   5.662  0.6485  0.0168 -0.2007
10173SOL    HW131960   6.516   4.147   5.694 -0.8269 -0.1448  1.0961
10173SOL    HW231961   6.395   4.210   5.628 -0.1690  1.1482  1.0815
10174SOL     OW31962   5.420   5.046   1.478  0.0845 -0.2966  0.2286
10174SOL    HW131963   5.455   4.959   1.500  1.2021  0.0397 -0.1293
10174SOL    HW231964   5.325   5.033   1.473 -0.2400 -0.5977  4.2602
10175SOL     OW31965   4.619   6.948   3.060  0.2855  0.0097  0.1250
10175SOL    HW131966   4.682   6.939   3.132  0.6658 -0.2047 -0.2284
10175SOL    HW231967   4.543   6.989   3.100 -0.3944 -2.1357  1.1692
10176SOL     OW31968   0.109   0.430   1.046 -0.2000  0.1284  0.2722
10176SOL    HW131969   0.169   0.389   0.985  0.5562  2.3949 -0.6209
10176SOL    HW231970   0.127   0.524   1.039 -1.3077  0.6182  2.7063
10177SOL     OW31971   1.469   7.802   0.402  0.3310 -0.0043  0.0616
10177SOL    HW131972   1.437   7.794   0.312  1.3683 -0.7349 -0.2592
10177SOL    HW231973   1.556   7.762   0.400 -0.5169 -2.1553  1.8825
10178SOL     OW31974   6.513   4.675   6.022 -0.2776 -0.3573 -0.2815
10178SOL    HW131975   6.505   4.616   5.947  1.5607 -2.2312  0.8945
10178SOL    HW231976   6.589   4.729   6.002  0.7163 -1.4174  0.5498
10179SOL     OW31977   4.100   7.295   9.280 -0.5248 -0.6196 -0.0620
10179SOL    HW131978   4.183   7.300   9.328 -0.9951  0.6768  0.6615
10179SOL    HW231979   4.034   7.284   9.348 -0.9801 -1.4684 -0.6277
10180SOL     OW31980   6.995   6.734   0.831 -0.0227  0.0041  0.3311
10180SOL    HW131981   7.019   6.761   0.742 -1.3611  0.8306  0.1904
10180SOL    HW231982   6.899   6.744   0.833 -0.0679 -0.5932  1.6767
10181SOL     OW31983   4.873   4.968  11.148 -0.5077 -0.1349 -0.1034
10181SOL    HW131984   4.946   5.010  11.103 -1.8684 -1.9180 -4.5127
10181SOL    HW231985   4.904   4.880  11.167 -0.7977 -0.2360 -0.0839
10182SOL     OW31986   0.629   3.223   0.897  0.1653 -0.2333 -0.4296
10182SOL    HW131987   0.706   3.279   0.888 -0.2128  0.3415 -0.0708
10182SOL    HW231988   0.640   3.156   0.829 -0.3616  1.4035 -2.1939
10183SOL     OW31989   6.589   5.529   1.116  0.3159  0.6836  0.0043
10183SOL    HW131990   6.573   5.594   1.048 -0.5238  1.4082  0.8714
10183SOL    HW231991   6.580   5.577   1.198  0.9539 -0.2525  0.6450
10184SOL     OW31992   3.768   2.001  10.908 -0.1228  0.3084 -0.3738
10184SOL    HW131993   3.697   2.024  10.967  1.0844  0.4036  1.1098
10184SOL    HW231994   3.776   1.906  10.917  0.0270  0.3168 -0.4220
10185SOL     OW31995   5.094   5.656   1.171 -0.3319 -0.0039 -0.4907
10185SOL    HW131996   5.011   5.617   1.199  0.4153  0.7048  3.1964
10185SOL    HW231997   5.157   5.584   1.176 -0.5087 -0.4256 -2.8478
10186SOL     OW31998   4.511   3.142   2.313 -0.1721  0.1570 -0.0139
10186SOL    HW131999   4.415   3.141   2.318 -0.2247 -2.6868  0.1858
10186SOL    HW232000   4.531   3.088   2.236  1.1566 -4.2158  2.9754
10187SOL     OW32001   1.671   3.873   6.048 -0.0790  0.2440 -0.9345
10187SOL    HW132002   1.686   3.780   6.032 -0.5415  0.1010 -0.5499
10187SOL    HW232003   1.647   3.878   6.140  1.9503  0.9901 -0.3933
10188SOL     OW32004   3.904   5.610  11.386 -0.4577 -0.3940 -0.1142
10188SOL    HW132005   3.976   5.575  11.439  1.1903 -0.8121 -2.4570
10188SOL    HW232006   3.901   5.703  11.408 -0.0113 -0.6075  0.9042
10189SOL     OW32007   3.273   5.543   9.198  0.3959  0.0704 -0.2585
10189SOL    HW132008   3.278   5.638   9.207  3.0011  0.1111 -1.0260
10189SOL    HW232009   3.181   5.521   9.212 -0.2948  2.7096 -0.2093
10190SOL     OW32010   6.354   2.975  10.133  0.4766  0.0777  0.0539
10190SOL    HW132011   6.384   2.959  10.044 -0.5876 -0.1933 -0.2766
10190SOL    HW232012   6.348   2.888  10.173 -0.5700  0.0379 -0.1435
10191SOL     OW32013   4.852   0.199   1.933  0.0557 -0.6767 -0.5597
10191SOL    HW132014   4.827   0.291   1.935  0.6277 -0.4917 -1.3955
10191SOL    HW232015   4.812   0.161   2.011  3.0001  1.1011  2.0615
10192SOL     OW32016   1.546   1.051   0.690 -0.3185 -0.5508  0.2432
10192SOL    HW132017   1.473   1.051   0.628 -0.4983  1.1907  0.3949
10192SOL    HW232018   1.505   1.053   0.776 -0.0647 -2.2322  0.4376
10193SOL     OW32019   0.640   0.962   0.124 -0.0020 -0.6255 -0.0935
10193SOL    HW132020   0.600   0.915   0.198  0.9040 -0.4409  0.5266
10193SOL    HW232021   0.727   0.923   0.115  0.4474  0.3550 -0.1154
10194SOL     OW32022   6.673   1.313   5.576 -0.1034 -0.3326 -0.1313
10194SOL    HW132023   6.701   1.366   5.501 -1.7599 -0.2182 -0.7021
10194SOL    HW232024   6.698   1.365   5.653  3.0208 -1.1393 -0.4688
10195SOL     OW32025   0.808   1.098   7.785 -0.0679 -0.3514 -0.3898
10195SOL    HW132026   0.720   1.132   7.770 -1.1525 -2.0217  1.6276
10195SOL    HW232027   0.839   1.146   7.862 -0.7283 -2.1932  1.1051
10196SOL     OW32028   5.162   4.489  12.190 -0.5191  0.0759 -0.0988
10196SOL    HW132029   5.221   4.524  12.123 -1.4798  0.4293 -0.7873
10196SOL    HW232030   5.075   4.510  12.158 -1.0127  0.0121  1.1548
10197SOL     OW32031   3.206   2.146   0.069  0.2947 -0.4367  0.2043
10197SOL    HW132032   3.279   2.198   0.101 -0.3363  0.1629  0.7037
10197SOL    HW232033   3.219   2.140  -0.025  0.9083 -0.2173  0.2761
10198SOL     OW32034   1.751   5.804  11.482  0.1950 -0.1199  0.6470
10198SOL    HW132035   1.741   5.816  11.576  0.3886  0.4187  0.6031
10198SOL    HW232036   1.815   5.734  11.473 -0.2637 -0.5808  0.9142
10199SOL     OW32037   3.052   2.854   8.160  0.3984 -0.0467  0.2938
10199SOL    HW132038   3.040   2.764   8.190  0.0751  0.0016  0.3207
10199SOL    HW232039   2.984   2.904   8.207  0.6708  0.2351  0.3933
10200SOL     OW32040   3.699   7.159   3.254  0.3554  0.2865  0.2238
10200SOL    HW132041   3.615   7.153   3.299  0.9107  1.1295  1.4381
10200SOL    HW232042   3.676   7.169   3.162 -0.8079 -1.6484  0.2540
10201SOL     OW32043   2.104   4.304   6.999 -0.6567  0.3839  0.4514
10201SOL    HW132044   2.146   4.366   7.059 -0.2929  0.1323  0.4610
10201SOL    HW232045   2.175   4.246   6.971 -1.3470 -1.2490  1.9478
10202SOL     OW32046   2.466   3.027  10.015 -0.0680  0.7706 -0.3012
10202SOL    HW132047   2.556   3.039  10.042 -0.3839  3.1005 -0.0439
10202SOL    HW232048   2.464   3.055   9.923 -0.3624 -0.1873 -0.6004
10203SOL     OW32049   1.493   7.871  10.940 -0.1050 -0.1093  0.5471
10203SOL    HW132050   1.531   7.942  10.991  1.1030  0.2713 -0.8099
10203SOL    HW232051   1.561   7.804  10.937 -1.3802 -1.5556  2.1537
10204SOL     OW32052   1.554   1.574  11.146  0.3730 -0.5897  0.2054
10204SOL    HW132053   1.463   1.595  11.170  0.5222 -1.2955  1.4642
10204SOL    HW232054   1.576   1.640  11.080 -0.0587  1.5636  2.0571
10205SOL     OW32055   7.738   5.256  11.708  0.1507  0.1331  0.5868
10205SOL    HW132056   7.699   5.239  11.622  0.2222  1.9847  0.1457
10205SOL    HW232057   7.827   5.284  11.688  0.7102 -0.9973  1.3959
10206SOL     OW32058   3.864   0.836  11.400  0.1358  0.7646  0.1684
10206SOL    HW132059   3.856   0.930  11.414 -1.1488  0.6189  0.5709
10206SOL    HW232060   3.852   0.825  11.305 -0.9774  0.9143  0.2763
10207SOL     OW32061   3.904   3.433   7.141 -0.0396 -0.1824 -0.3439
10207SOL    HW132062   3.868   3.480   7.066 -0.2203 -0.0208 -0.1582
10207SOL    HW232063   3.841   3.363   7.158 -1.1482  1.0656  0.9872
10208SOL     OW32064   1.359   5.911   7.331  0.0922 -0.3027 -0.3473
10208SOL    HW132065   1.304   5.833   7.331  0.4851 -0.5930  0.3570
10208SOL    HW232066   1.400   5.911   7.418  0.3110  0.5357 -0.4414
10209SOL     OW32067   5.409   7.380   1.588  0.6144  0.0510 -0.3956
10209SOL    HW132068   5.331   7.435   1.587  1.0016  0.6342  0.3640
10209SOL    HW232069   5.425   7.359   1.496 -0.5506 -0.2493 -0.5449
10210SOL     OW32070   3.934   7.102  11.745 -0.4904 -0.5544 -0.6047
10210SOL    HW132071   3.900   7.015  11.763 -0.3313 -0.5212 -0.1413
10210SOL    HW232072   4.022   7.103  11.783 -0.6031 -0.0995 -0.3420
10211SOL     OW32073   6.329   0.612   9.248  0.2247 -0.5665  0.5687
10211SOL    HW132074   6.336   0.620   9.153 -1.7341 -0.1478  0.4130
10211SOL    HW232075   6.340   0.518   9.265  3.1502 -0.3841  0.2675
10212SOL     OW32076   1.785   5.355   2.490 -0.8507  0.2139  0.2057
10212SOL    HW132077   1.859   5.382   2.436 -2.0493 -0.6270 -2.0095
10212SOL    HW232078   1.817   5.280   2.539  0.4596  1.3747  1.2208
10213SOL     OW32079   1.096   7.914  11.514  0.0078  0.3533  0.7956
10213SOL    HW132080   1.054   7.897  11.430  1.9283 -0.6644 -0.0245
10213SOL    HW232081   1.046   7.863  11.577 -0.7499  0.2019  0.0838
10214SOL     OW32082   0.466   4.397   6.310  0.0836 -0.1324  0.2815
10214SOL    HW132083   0.409   4.321   6.322 -1.8051  1.2253  0.4012
10214SOL    HW232084   0.504   4.412   6.396  1.0963 -1.3677  0.0787
10215SOL     OW32085   3.064   4.946   1.409  0.0577  0.5114 -0.4122
10215SOL    HW132086   3.135   5.011   1.412  1.0933 -0.5506  3.1852
10215SOL    HW232087   3.109   4.862   1.404 -0.9734 -0.1277  0.7591
10216SOL     OW32088   0.054   2.172   3.597  0.5128  0.5143 -0.1119
10216SOL    HW132089  -0.003   2.105   3.635 -0.9521  1.9846  0.4113
10216SOL    HW232090   0.048   2.246   3.657  1.6695  1.3106 -0.9286
10217SOL     OW32091   6.521   5.805  10.698  0.6664 -0.0552 -0.1248
10217SOL    HW132092   6.478   5.777  10.617 -0.3156 -0.9071  0.6615
10217SOL    HW232093   6.615   5.791  10.681  0.4603 -0.4437 -1.0307
10218SOL     OW32094   6.384   4.573   2.474  0.0578 -0.7196 -0.3761
10218SOL    HW132095   6.299   4.555   2.514  0.0558 -0.5323 -0.2984
10218SOL    HW232096   6.444   4.580   2.548 -0.1598  0.8399 -0.3211
10219SOL     OW32097   1.401   0.352  10.981 -0.1537 -0.4832 -0.6487
10219SOL    HW132098   1.476   0.341  10.923 -0.6340  2.1342 -1.9537
10219SOL    HW232099   1.430   0.417  11.046 -0.7137 -0.8266 -0.0428
10220SOL     OW32100   0.036   4.722   3.407 -0.1365  0.1353 -0.1320
10220SOL    HW132101  -0.009   4.748   3.488 -0.0579  0.1446 -0.0911
10220SOL    HW232102   0.126   4.704   3.435  0.0688  0.8198 -0.3406
10221SOL     OW32103   7.372   0.972   4.197  0.3295 -0.4082  0.1704
10221SOL    HW132104   7.295   0.919   4.216 -0.0858  0.7476  1.9218
10221SOL    HW232105   7.446   0.919   4.229  0.1746 -1.0275 -0.4753
10222SOL     OW32106   2.679   2.394   4.285 -0.4289  0.0768 -0.1089
10222SOL    HW132107   2.702   2.425   4.198 -1.6897  0.8907 -0.1833
10222SOL    HW232108   2.638   2.308   4.271  0.0474 -0.1289 -0.2384
10223SOL     OW32109   7.817   0.142   9.697 -0.1158  0.1479  0.3735
10223SOL    HW132110   7.887   0.097   9.744 -1.0338  0.2159  1.8688
10223SOL    HW232111   7.737   0.100   9.727 -0.8733  1.6089  0.4652
10224SOL     OW32112   2.671   5.755   2.941 -0.1326  0.1734 -0.5513
10224SOL    HW132113   2.730   5.762   3.016 -0.3111  2.0339 -0.5353
10224SOL    HW232114   2.606   5.824   2.956 -1.7270 -1.1714 -1.0867
10225SOL     OW32115   4.208   7.745   8.829 -0.3069  0.7500  0.5109
10225SOL    HW132116   4.292   7.783   8.855 -0.5092  0.0310  2.4099
10225SOL    HW232117   4.231   7.672   8.771  0.4594  0.0612  1.6367
10226SOL     OW32118   3.238   5.022   2.620 -0.1673 -0.2756 -0.6277
10226SOL    HW132119   3.259   4.969   2.544 -0.5039 -0.2822 -0.7166
10226SOL    HW232120   3.150   4.994   2.646  0.0651 -0.4900 -0.0513
10227SOL     OW32121   4.652   7.397   5.103  0.2608  0.0254 -0.0137
10227SOL    HW132122   4.654   7.470   5.041  2.5247  0.2834  0.2788
10227SOL    HW232123   4.622   7.436   5.185 -0.1673  0.2556 -0.2747
10228SOL     OW32124   1.565   4.945   9.444 -0.1171  0.3573  0.3763
10228SOL    HW132125   1.613   4.989   9.375  0.9032  0.5917  1.2092
10228SOL    HW232126   1.633   4.906   9.500 -0.9131  0.0854  1.1819
10229SOL     OW32127   6.364   2.399   3.456 -0.2724  0.4674  0.0698
10229SOL    HW132128   6.348   2.312   3.492  1.5482  0.3911  0.8183
10229SOL    HW232129   6.326   2.397   3.368 -2.0486 -0.3769  0.8052
10230SOL     OW32130   0.977   4.543   3.685 -0.2314  0.1636  0.6982
10230SOL    HW132131   0.931   4.459   3.687 -0.6507  0.3447 -0.4784
10230SOL    HW232132   1.054   4.529   3.740  0.7469 -1.6256 -0.9866
10231SOL     OW32133   0.226   7.460   5.254 -0.0767  0.0741  0.5824
10231SOL    HW132134   0.161   7.454   5.184  0.1993  1.8726  0.1177
10231SOL    HW232135   0.303   7.413   5.221 -0.7192 -1.0637  0.6620
10232SOL     OW32136   0.552   6.182   0.400 -0.3309  0.0669  0.0832
10232SOL    HW132137   0.466   6.221   0.417 -1.4553 -1.6980 -1.2116
10232SOL    HW232138   0.537   6.123   0.326  2.1174  0.0534 -0.4667
10233SOL     OW32139   4.676   5.611   7.280  0.1563  0.2596 -0.7877
10233SOL    HW132140   4.675   5.689   7.225 -1.1465  1.0322  0.2671
10233SOL    HW232141   4.733   5.634   7.353 -1.4644  0.8575  0.3370
10234SOL     OW32142   5.983   2.862   6.536  0.0414  0.3608 -0.5941
10234SOL    HW132143   6.007   2.906   6.618  0.2862 -0.1402 -0.3894
10234SOL    HW232144   6.064   2.861   6.485  0.3769 -0.9046 -0.1006
10235SOL     OW32145   7.466   3.514   8.804 -0.7585 -0.3588 -0.1231
10235SOL    HW132146   7.416   3.439   8.772 -0.2142 -1.1074  0.7482
10235SOL    HW232147   7.524   3.478   8.871 -1.3081  1.0405  1.1493
10236SOL     OW32148   6.773   0.252   7.742  0.5170 -0.1453  0.4527
10236SOL    HW132149   6.749   0.213   7.826  0.1968 -1.3185 -0.1692
10236SOL    HW232150   6.697   0.303   7.716 -0.2668 -1.5889 -0.1754
10237SOL     OW32151   0.396   3.998   8.842  0.0366 -0.1534 -0.1646
10237SOL    HW132152   0.429   3.955   8.763  0.5539  0.0046 -0.0394
10237SOL    HW232153   0.312   3.956   8.859  0.3706 -0.8753 -0.2466
10238SOL     OW32154   2.053   7.809  11.787  0.1311  0.1265  0.0522
10238SOL    HW132155   2.139   7.791  11.825  0.5383  1.0084 -0.4336
10238SOL    HW232156   2.008   7.863  11.852 -0.2661 -0.7570  0.5335
10239SOL     OW32157   0.845   0.669   3.357 -0.7722  0.8593 -0.7476
10239SOL    HW132158   0.873   0.654   3.447  1.1117  0.4801 -1.3408
10239SOL    HW232159   0.760   0.712   3.365 -1.4385 -0.6902  1.1578
10240SOL     OW32160   7.796   5.748   0.920  0.1528  0.3408 -0.3877
10240SOL    HW132161   7.747   5.759   0.839  0.4663  0.8069 -0.5131
10240SOL    HW232162   7.852   5.672   0.904  0.4117  0.6002 -0.6992
10241SOL     OW32163   1.372   1.434   1.687  0.3822 -0.1807  0.3307
10241SOL    HW132164   1.288   1.428   1.733 -1.0184  0.7261 -1.9517
10241SOL    HW232165   1.431   1.474   1.750 -0.8514 -0.9029  2.0225
10242SOL     OW32166   4.124   5.610   6.615  0.5414  0.3903  0.5274
10242SOL    HW132167   4.065   5.684   6.629 -1.0829 -0.5701 -0.8405
10242SOL    HW232168   4.207   5.650   6.591  0.1798  1.7865  1.4886
10243SOL     OW32169   4.968   2.522   7.939 -0.1438 -0.3515  0.4415
10243SOL    HW132170   4.926   2.594   7.985  0.6426  0.2482  0.2316
10243SOL    HW232171   5.047   2.560   7.901 -0.1554 -1.1221 -0.3886
10244SOL     OW32172   7.943   5.848  10.252  0.0565 -0.3162  0.2285
10244SOL    HW132173   7.875   5.827  10.315 -0.5614 -0.8135 -0.5805
10244SOL    HW232174   8.025   5.837  10.300 -0.4112 -0.2729  1.0501
10245SOL     OW32175   2.370   2.067   1.785 -0.0372  0.0331  0.4256
10245SOL    HW132176   2.323   2.149   1.799 -0.3394 -0.2175  0.8992
10245SOL    HW232177   2.341   2.037   1.699  1.0816  1.0850 -0.3407
10246SOL     OW32178   5.456   0.706   1.668  0.0939  0.5187  0.5024
10246SOL    HW132179   5.395   0.633   1.673  0.2230  0.4487  1.2898
10246SOL    HW232180   5.541   0.667   1.689  1.1060 -0.0977 -3.8286
10247SOL     OW32181   7.378   0.542   2.403 -0.6612 -0.1294 -0.3090
10247SOL    HW132182   7.335   0.623   2.430  0.6034  1.0178 -1.5536
10247SOL    HW232183   7.375   0.543   2.308  3.8032  1.1811 -0.7020
10248SOL     OW32184   6.768   5.160   6.486  0.2030 -0.0745 -0.2133
10248SOL    HW132185   6.754   5.143   6.579 -0.5669 -0.4129 -0.3787
10248SOL    HW232186   6.735   5.081   6.442  0.1904  0.2448 -0.7886
10249SOL     OW32187   1.147   3.638   7.232 -0.2010 -0.3846  0.1259
10249SOL    HW132188   1.204   3.665   7.304  0.9522 -0.7674 -0.6067
10249SOL    HW232189   1.085   3.710   7.222 -0.6710 -0.5185  1.7746
10250SOL     OW32190   5.891   7.866   1.691 -0.1019  0.1819 -0.4142
10250SOL    HW132191   5.846   7.873   1.607  0.5188 -1.5115 -0.9140
10250SOL    HW232192   5.824   7.835   1.752 -0.2461  0.2403 -0.5417
10251SOL     OW32193   6.063   4.890   5.867  0.2569 -0.5535  0.4192
10251SOL    HW132194   5.969   4.872   5.875  0.0121  1.2672  2.3302
10251SOL    HW232195   6.071   4.940   5.786 -0.7845  1.1879  1.3358
10252SOL     OW32196   7.437   6.067   3.722 -0.1328  0.2237 -0.4795
10252SOL    HW132197   7.372   6.068   3.652 -0.7016 -1.5086 -0.0374
10252SOL    HW232198   7.397   6.119   3.793 -0.5444  0.1128 -0.6269
10253SOL     OW32199   2.070   7.076  12.408  0.2316  0.2071 -0.0428
10253SOL    HW132200   1.983   7.110  12.430 -0.1664 -1.6633  1.6009
10253SOL    HW232201   2.130   7.133  12.457 -0.2729 -0.1069  0.9845
10254SOL     OW32202   0.918   6.162   5.339 -0.1804 -0.4546  0.4534
10254SOL    HW132203   0.826   6.139   5.325 -0.1391 -0.6470  0.4950
10254SOL    HW232204   0.932   6.240   5.286  0.3754 -1.9884 -1.7986
10255SOL     OW32205   7.766   6.860   4.539  0.7059 -0.0339  0.6000
10255SOL    HW132206   7.751   6.797   4.610 -0.3454  0.0914  0.4981
10255SOL    HW232207   7.720   6.823   4.464 -0.1888  1.0135  0.6204
10256SOL     OW32208   5.976   3.566  10.262  0.1300  0.3023  0.4468
10256SOL    HW132209   6.006   3.478  10.240 -1.2696 -0.0334 -0.2755
10256SOL    HW232210   5.988   3.573  10.357  0.4423 -0.5864  0.4770
10257SOL     OW32211   7.185   1.396   1.465 -0.0120 -0.2969 -0.0850
10257SOL    HW132212   7.131   1.339   1.411 -0.2016 -0.7140  0.5489
10257SOL    HW232213   7.147   1.483   1.453  1.1015 -0.0081 -2.1534
10258SOL     OW32214   0.194   0.818   8.192  1.0086  0.3509 -1.0226
10258SOL    HW132215   0.153   0.880   8.252  1.9454 -0.2859  0.3157
10258SOL    HW232216   0.126   0.754   8.172  1.4021 -1.0273  1.6222
10259SOL     OW32217   3.779   1.875   1.211  0.3695 -0.0041  0.2485
10259SOL    HW132218   3.873   1.876   1.228  0.5384  3.1163 -0.2635
10259SOL    HW232219   3.772   1.873   1.115  0.0794  2.3378  0.1589
10260SOL     OW32220   2.236   7.225  10.085  0.1549  0.1058 -0.2990
10260SOL    HW132221   2.243   7.186   9.998  1.4910  1.6377 -0.9468
10260SOL    HW232222   2.317   7.199  10.130  0.9437  1.8147 -0.6515
10261SOL     OW32223   6.274   5.406  11.900  0.0990 -0.5146 -0.2705
10261SOL    HW132224   6.367   5.414  11.879  0.0049 -0.6694 -0.7667
10261SOL    HW232225   6.268   5.325  11.951  0.2683 -0.3778 -0.0327
10262SOL     OW32226   2.898   6.315   7.193 -0.5547  0.3114  0.3086
10262SOL    HW132227   2.884   6.276   7.280 -0.1147  0.1232  0.2980
10262SOL    HW232228   2.812   6.349   7.168 -0.6326  0.5705  0.9175
10263SOL     OW32229   0.803   7.187   1.172 -0.3766  0.2660  0.4440
10263SOL    HW132230   0.836   7.199   1.083  0.1271  0.3401  0.6394
10263SOL    HW232231   0.729   7.247   1.178  0.3337  1.1528  0.4641
10264SOL     OW32232   4.176   1.210   8.308 -0.0980 -0.1687  0.1356
10264SOL    HW132233   4.263   1.220   8.346 -0.1361  1.8806 -0.2151
10264SOL    HW232234   4.187   1.231   8.215 -0.3744 -3.2392 -0.7085
10265SOL     OW32235   0.159   7.451   7.592 -0.1967  0.1582 -0.5302
10265SOL    HW132236   0.206   7.373   7.562 -1.5460 -0.4136 -1.2539
10265SOL    HW232237   0.072   7.443   7.552 -0.7750  1.3829  0.4295
10266SOL     OW32238   7.545   5.390  11.858  0.4880 -0.4898 -0.1242
10266SOL    HW132239   7.471   5.419  11.803  0.8228 -0.4750 -0.5755
10266SOL    HW232240   7.605   5.349  11.796  0.9573 -0.3107  0.2106
10267SOL     OW32241   3.095   3.760   8.552 -0.2509 -0.0941  0.1581
10267SOL    HW132242   3.017   3.741   8.500 -2.2626 -0.6554  3.0836
10267SOL    HW232243   3.091   3.854   8.568 -0.1988 -0.0800  0.0860
10268SOL     OW32244   1.896   6.609   0.966 -0.1488  0.1741  0.7464
10268SOL    HW132245   1.830   6.664   1.008 -0.7992  1.5252 -1.8328
10268SOL    HW232246   1.979   6.638   1.003 -0.8187 -0.1950  2.6203
10269SOL     OW32247   3.223   7.636   0.525  0.0988 -0.2075 -0.6007
10269SOL    HW132248   3.169   7.675   0.594  1.7219  1.2138 -0.0615
10269SOL    HW232249   3.172   7.650   0.445 -1.0952 -0.4572  0.0859
10270SOL     OW32250   4.402   4.933   9.960  0.0737 -0.1415  0.2269
10270SOL    HW132251   4.423   4.866  10.026 -0.9862  0.1012  0.8281
10270SOL    HW232252   4.425   5.015  10.002 -0.6624  0.0198  0.3189
10271SOL     OW32253   6.229   1.862   5.924 -0.6299 -0.0174  0.0354
10271SOL    HW132254   6.198   1.950   5.903 -2.2029 -0.1025  1.7638
10271SOL    HW232255   6.273   1.872   6.009 -1.4869 -0.9948  0.6129
10272SOL     OW32256   5.446   7.461   6.204 -0.3011  0.6611  0.4460
10272SOL    HW132257   5.480   7.479   6.292 -2.9214  1.4975  1.3555
10272SOL    HW232258   5.390   7.384   6.214 -1.2808  1.2525 -0.3200
10273SOL     OW32259   6.544   1.385   5.863 -0.0746  0.2192 -0.2971
10273SOL    HW132260   6.476   1.354   5.922 -1.3678  2.0081 -0.7364
10273SOL    HW232261   6.623   1.392   5.917 -0.2712 -1.6768  0.2729
10274SOL     OW32262   5.044   2.850   0.881  0.1412 -0.1526 -0.2740
10274SOL    HW132263   5.089   2.859   0.797 -0.4135 -0.3298 -0.5938
10274SOL    HW232264   4.969   2.794   0.862 -0.7544  0.9215  0.0438
10275SOL     OW32265   2.243   5.764   1.018  0.3958 -0.0775  0.3515
10275SOL    HW132266   2.163   5.752   1.068  0.1929 -1.0497 -0.1813
10275SOL    HW232267   2.313   5.764   1.084 -0.0164  0.5610  0.7962
10276SOL     OW32268   1.754   5.718   7.193  0.3553  0.3505 -0.3609
10276SOL    HW132269   1.667   5.749   7.171  0.0351 -0.6134 -0.5120
10276SOL    HW232270   1.748   5.690   7.284  0.3319 -0.2537 -0.5380
10277SOL     OW32271   4.789   0.308   4.858  0.2964  0.3752 -0.6622
10277SOL    HW132272   4.855   0.243   4.883 -2.7497 -2.1714  1.6276
10277SOL    HW232273   4.784   0.366   4.934 -1.7624 -1.0643  0.4021
10278SOL     OW32274   1.222   5.625   4.920  1.3402  0.0839  0.2700
10278SOL    HW132275   1.189   5.655   4.836 -1.2322 -1.3985  0.6344
10278SOL    HW232276   1.180   5.682   4.985  0.2695 -1.1564  0.7029
10279SOL     OW32277   5.302   5.533  12.296  0.0438 -0.0704  0.1346
10279SOL    HW132278   5.293   5.618  12.340  1.5685  0.1517  0.0829
10279SOL    HW232279   5.326   5.556  12.206  0.1039 -0.5479  0.0311
10280SOL     OW32280   7.205   1.552   9.230 -0.0700  0.2860  0.1861
10280SOL    HW132281   7.269   1.583   9.166  0.7540 -0.0110  0.8382
10280SOL    HW232282   7.133   1.516   9.178  0.6731 -0.1332 -0.5740
10281SOL     OW32283   3.478   7.839   6.726 -0.2969  0.2931  0.6810
10281SOL    HW132284   3.408   7.842   6.791 -0.5311  1.7373  0.3978
10281SOL    HW232285   3.527   7.759   6.746 -2.1494 -0.8780  0.7283
10282SOL     OW32286   5.169   1.453   2.932 -0.1189  0.4086 -0.0248
10282SOL    HW132287   5.198   1.438   3.022 -0.9754 -0.2008  0.1680
10282SOL    HW232288   5.162   1.549   2.926 -0.8106  0.4312  0.8228
10283SOL     OW32289   7.839   3.415   3.635 -0.0177  0.3327 -0.2146
10283SOL    HW132290   7.781   3.351   3.676 -1.9848  0.7525 -2.1041
10283SOL    HW232291   7.782   3.489   3.615  1.2060  0.8660 -1.9923
10284SOL     OW32292   5.969   4.680   8.849  0.0116  0.5070 -0.0905
10284SOL    HW132293   5.883   4.710   8.821 -0.4358 -0.5089  0.1558
10284SOL    HW232294   5.952   4.623   8.924  0.8031 -0.5384 -0.6686
10285SOL     OW32295   7.313   3.505   8.292 -0.0328 -0.0590  0.6783
10285SOL    HW132296   7.318   3.421   8.338  1.6279  0.4911  1.5809
10285SOL    HW232297   7.396   3.548   8.311 -0.3568  1.2996 -0.7608
10286SOL     OW32298   0.070   4.591   0.238  0.3302 -0.4200 -0.8007
10286SOL    HW132299  -0.009   4.559   0.193  0.1236 -0.5398 -0.3616
10286SOL    HW232300   0.071   4.685   0.222  0.6297 -0.5563 -1.6261
10287SOL     OW32301   4.108   4.045  12.402  0.5122 -0.2961  0.2144
10287SOL    HW132302   4.095   4.137  12.422 -2.0286 -0.3924 -0.6900
10287SOL    HW232303   4.146   4.045  12.314  1.8451 -0.1140  0.7716
10288SOL     OW32304   1.042   0.045   7.741  0.3547  0.5570 -0.1051
10288SOL    HW132305   1.019  -0.013   7.814  0.0756  3.0776  1.9929
10288SOL    HW232306   1.118   0.095   7.774  0.6790  1.2788 -1.8513
10289SOL     OW32307   5.303   4.277   6.386  0.0749  0.6002 -0.1187
10289SOL    HW132308   5.307   4.366   6.422 -0.4767  0.1470  1.1397
10289SOL    HW232309   5.281   4.289   6.294  0.3252  1.7785 -0.0417
10290SOL     OW32310   2.026   6.243  10.074 -0.1405 -0.1388 -0.8255
10290SOL    HW132311   2.070   6.180  10.131 -1.0463 -0.6971 -0.7320
10290SOL    HW232312   1.952   6.195  10.038 -1.9462  1.3590  0.6844
10291SOL     OW32313   5.551   4.278  11.118 -0.2028  0.1816  0.4761
10291SOL    HW132314   5.509   4.197  11.091  0.9611  0.0298 -0.9836
10291SOL    HW232315   5.611   4.252  11.188  0.8978 -0.4134 -0.6591
10292SOL     OW32316   2.622   5.769   8.598 -0.2616 -0.4747 -0.9799
10292SOL    HW132317   2.587   5.704   8.659  0.3723  1.9011  2.2272
10292SOL    HW232318   2.717   5.765   8.611 -0.2638  1.8003  0.2602
10293SOL     OW32319   5.105   1.036  12.336  0.0973  0.4820  0.0254
10293SOL    HW132320   5.050   1.075  12.268  0.1091  1.3346  0.5009
10293SOL    HW232321   5.113   1.104  12.403 -0.5180 -0.5804  1.2358
10294SOL     OW32322   0.356   3.378   2.515  0.0622 -0.8644 -0.2521
10294SOL    HW132323   0.305   3.448   2.556 -1.1590 -1.4768 -0.6781
10294SOL    HW232324   0.325   3.298   2.557 -1.0786 -1.4919 -2.1706
10295SOL     OW32325   1.849   6.617   2.787 -0.1594 -0.2791 -0.1764
10295SOL    HW132326   1.898   6.544   2.823  1.3914  2.2371  3.3770
10295SOL    HW232327   1.913   6.668   2.737 -0.9057 -0.6169 -1.5173
10296SOL     OW32328   5.494   2.091   3.457 -0.0285 -0.5420  0.7040
10296SOL    HW132329   5.570   2.146   3.474 -0.3701 -0.2431  1.3374
10296SOL    HW232330   5.518   2.005   3.490 -0.3938 -0.1550  2.0494
10297SOL     OW32331   6.176   3.160   3.534  0.0390 -0.3292 -0.4921
10297SOL    HW132332   6.269   3.144   3.519  0.1221  1.0846 -1.6166
10297SOL    HW232333   6.173   3.241   3.584 -0.6105  0.5200 -1.8440
10298SOL     OW32334   2.451   2.339  10.425 -0.3135  0.3968  0.1454
10298SOL    HW132335   2.472   2.388  10.504  0.9315 -1.2211  0.8703
10298SOL    HW232336   2.511   2.373  10.359  0.1319  0.2543  0.4783
10299SOL     OW32337   0.154   6.488   4.684 -0.0040  0.2779 -0.2234
10299SOL    HW132338   0.081   6.452   4.734  0.5134  0.1006  0.4124
10299SOL    HW232339   0.232   6.458   4.730  0.4595  2.3557  0.4451
10300SOL     OW32340   3.691   6.667   1.222 -0.2540  0.5268  0.9268
10300SOL    HW132341   3.617   6.607   1.215  1.7826 -2.2908  1.8333
10300SOL    HW232342   3.695   6.710   1.137 -2.2747 -0.0121  0.5002
10301SOL     OW32343   3.579   0.993  10.254 -0.0367  0.2030 -0.0477
10301SOL    HW132344   3.491   0.954  10.255 -0.5498  1.3199 -0.1871
10301SOL    HW232345   3.576   1.056  10.182  0.2065  1.7213  1.2237
10302SOL     OW32346   7.708   0.200   6.957  0.1401 -0.4580  0.3759
10302SOL    HW132347   7.728   0.291   6.981  0.0275 -0.5307  0.7619
10302SOL    HW232348   7.776   0.149   7.002  0.0983 -0.5773  0.3008
10303SOL     OW32349   5.688   0.666   0.552  0.1898  0.3346 -0.2080
10303SOL    HW132350   5.663   0.647   0.462 -3.0435 -0.5127  0.7641
10303SOL    HW232351   5.721   0.583   0.586 -2.8189 -0.6552  0.5853
10304SOL     OW32352   2.501   0.786   3.255 -0.2473  0.1092  0.1727
10304SOL    HW132353   2.476   0.821   3.170 -0.3543 -0.7181 -0.1391
10304SOL    HW232354   2.455   0.702   3.262  1.8678 -1.1395 -0.1355
10305SOL     OW32355   0.381   6.543   9.500  0.2121  0.3307 -0.6120
10305SOL    HW132356   0.332   6.598   9.561  0.6187  0.5830 -0.5091
10305SOL    HW232357   0.325   6.536   9.423 -0.2598  0.0962 -0.2535
10306SOL     OW32358   7.910   0.881   6.260 -0.1225  0.1800  0.2591
10306SOL    HW132359   7.936   0.954   6.204  0.8494 -1.1012 -1.0134
10306SOL    HW232360   7.929   0.803   6.209 -1.0312 -0.9930  1.6349
10307SOL     OW32361   1.048   2.388   4.417 -0.0754  0.4500  0.2291
10307SOL    HW132362   1.082   2.448   4.351  1.6686 -0.9515 -0.2020
10307SOL    HW232363   1.028   2.308   4.369 -1.0146  0.1723  1.0375
10308SOL     OW32364   0.305   5.353   3.580  0.6064 -0.3043 -0.0699
10308SOL    HW132365   0.217   5.348   3.617  0.9817  0.7275  1.0242
10308SOL    HW232366   0.293   5.403   3.499  0.0575 -0.9400 -0.3870
10309SOL     OW32367   3.802   2.235   8.261 -0.1441 -0.3110 -0.0859
10309SOL    HW132368   3.848   2.302   8.312 -1.0140 -0.1781  0.5538
10309SOL    HW232369   3.773   2.172   8.327  0.0262 -0.9388 -0.6012
10310SOL     OW32370   5.603   6.729   6.758  0.0789 -0.0963 -0.0043
10310SOL    HW132371   5.597   6.801   6.821  0.7319 -0.5374  0.5726
10310SOL    HW232372   5.627   6.772   6.676  1.2553  0.2829  0.5132
10311SOL     OW32373   4.101   7.297  10.407 -0.2813  1.0979 -0.2452
10311SOL    HW132374   4.060   7.219  10.444  1.2689  0.1340 -0.4689
10311SOL    HW232375   4.040   7.368  10.427 -2.6213 -0.4148 -1.5942
10312SOL     OW32376   0.979   3.897   9.850  0.1065 -0.5766  0.3624
10312SOL    HW132377   1.017   3.967   9.796  0.4877  0.3906  1.8120
10312SOL    HW232378   0.928   3.845   9.789 -1.5060  1.8928 -0.5600
10313SOL     OW32379   5.927   4.857   0.835  0.1683  0.3873 -0.4085
10313SOL    HW132380   5.899   4.841   0.745 -0.8895 -0.4123  0.0444
10313SOL    HW232381   5.875   4.797   0.888  1.8068 -0.1925  0.6230
10314SOL     OW32382   7.945   3.302   3.865  0.2457  0.0116 -0.4419
10314SOL    HW132383   7.926   3.359   3.790 -0.7897  1.4700  0.8515
10314SOL    HW232384   7.872   3.241   3.868  0.4847 -0.2969 -0.8353
10315SOL     OW32385   6.523   5.616   1.356 -0.5388 -0.1991  0.1530
10315SOL    HW132386   6.519   5.696   1.408  0.2976  0.9196 -1.4226
10315SOL    HW232387   6.552   5.549   1.418  0.5953  1.1043  1.1046
10316SOL     OW32388   4.979   4.835   0.163  0.3106  0.4856  0.3017
10316SOL    HW132389   4.960   4.928   0.175  1.6591  0.8581 -0.2575
10316SOL    HW232390   4.985   4.824   0.068  0.0560 -0.2038  0.3591
10317SOL     OW32391   2.063   1.317   1.367  0.6085 -0.1769  0.4652
10317SOL    HW132392   1.976   1.298   1.403  1.0799 -1.0832  1.1787
10317SOL    HW232393   2.071   1.412   1.374 -0.7187  0.0444 -0.5514
10318SOL     OW32394   2.034   2.596   0.394 -0.1611  0.3883  0.5923
10318SOL    HW132395   2.081   2.641   0.324 -2.4206  1.7153 -0.1508
10318SOL    HW232396   2.092   2.603   0.470  2.0913 -0.5916 -0.9369
10319SOL     OW32397   1.543   3.611   4.992  0.2517  0.2893 -0.0558
10319SOL    HW132398   1.617   3.551   4.982 -1.0539 -1.5686  0.8876
10319SOL    HW232399   1.516   3.601   5.084 -3.8098 -2.4723 -1.2650
10320SOL     OW32400   5.711   4.779   9.451 -0.1960  0.5883  0.5426
10320SOL    HW132401   5.762   4.839   9.397  1.5901 -0.2954  1.1521
10320SOL    HW232402   5.621   4.806   9.438  0.3675  1.9395 -0.9665
10321SOL     OW32403   6.007   5.864   3.999  0.0011  0.2541 -0.1211
10321SOL    HW132404   5.976   5.942   3.952 -1.0238  0.1905  0.4348
10321SOL    HW232405   6.076   5.829   3.942  2.9331  3.3935  1.1236
10322SOL     OW32406   0.705   2.270   4.914  0.1694 -0.1670 -0.2667
10322SOL    HW132407   0.610   2.272   4.902  0.2417 -0.8809 -1.0585
10322SOL    HW232408   0.732   2.361   4.902 -0.6830  0.5833  2.6873
10323SOL     OW32409   6.052   4.450  11.735 -0.1184 -0.3965  0.4251
10323SOL    HW132410   6.140   4.483  11.713 -0.2378 -0.4985 -0.2332
10323SOL    HW232411   6.068   4.367  11.779  0.1096 -0.6935 -0.1982
10324SOL     OW32412   4.698   0.942   2.000  0.4468 -0.4160 -0.2365
10324SOL    HW132413   4.641   1.016   2.019 -0.1708 -0.7110 -0.9254
10324SOL    HW232414   4.640   0.875   1.965  1.0934 -1.0131 -0.1782
10325SOL     OW32415   2.956   1.261   6.059  0.1656  0.5046 -1.0754
10325SOL    HW132416   2.867   1.231   6.040  0.1628 -0.1084 -0.1733
10325SOL    HW232417   3.010   1.223   5.990  0.0658 -1.0766 -0.3288
10326SOL     OW32418   0.735   4.109  11.136 -0.4004  0.2035  0.2651
10326SOL    HW132419   0.724   4.204  11.131  3.2748  0.8654  1.4813
10326SOL    HW232420   0.701   4.086  11.223 -1.7155  0.2950 -0.2113
10327SOL     OW32421   7.319   4.299   4.128  0.4242 -0.8861  0.1720
10327SOL    HW132422   7.402   4.259   4.153  0.6650 -0.9738 -0.7373
10327SOL    HW232423   7.271   4.228   4.085  1.3663  0.0431 -2.6597
10328SOL     OW32424   2.327   6.596  11.948  0.2047  0.1824  0.0503
10328SOL    HW132425   2.249   6.595  11.892  1.1638  0.1355 -1.3213
10328SOL    HW232426   2.325   6.682  11.990 -1.7860 -0.6414  1.8402
10329SOL     OW32427   6.821   2.294   0.547 -0.3076  0.1605 -0.1409
10329SOL    HW132428   6.896   2.247   0.511 -0.4068  0.4268 -0.6934
10329SOL    HW232429   6.813   2.259   0.636  0.2102 -0.1740 -0.2159
10330SOL     OW32430   3.031   1.812  11.204  0.3821  0.3986  0.5988
10330SOL    HW132431   3.096   1.790  11.136 -1.7136 -2.2936 -0.6997
10330SOL    HW232432   3.076   1.875  11.260  3.1657  0.7181 -1.7490
10331SOL     OW32433   4.913   0.127   7.537  0.0730  0.4013  0.3833
10331SOL    HW132434   4.819   0.133   7.519  0.0365 -0.4668  0.2210
10331SOL    HW232435   4.955   0.150   7.454 -0.0570 -1.4877 -0.2616
10332SOL     OW32436   0.410   3.519   6.374 -0.2609 -0.2147 -0.0234
10332SOL    HW132437   0.376   3.430   6.384  1.2069 -0.6736  1.4308
10332SOL    HW232438   0.402   3.538   6.281 -0.3033 -2.0145 -0.4161
10333SOL     OW32439   6.319   5.478   9.448 -0.3203  0.4511 -0.3033
10333SOL    HW132440   6.236   5.443   9.478  0.3129 -0.0741  0.8903
10333SOL    HW232441   6.315   5.571   9.469 -0.1807  0.2253  0.7693
10334SOL     OW32442   3.676   2.122   4.950 -0.4903  0.0790  0.0603
10334SOL    HW132443   3.669   2.217   4.937 -1.0360  0.0159 -0.1521
10334SOL    HW232444   3.607   2.101   5.013 -1.2015 -0.3458 -0.8336
10335SOL     OW32445   2.171   4.400   5.041  0.2303 -0.3080  0.1572
10335SOL    HW132446   2.182   4.310   5.071  0.0863 -0.4043 -0.0737
10335SOL    HW232447   2.205   4.399   4.951  2.6003  0.4455  0.9804
10336SOL     OW32448   6.374   7.456   0.012  0.0166  0.1927  0.0442
10336SOL    HW132449   6.428   7.457   0.091 -1.5077  1.7186  1.1536
10336SOL    HW232450   6.427   7.501  -0.054 -0.0509  2.1897  1.2670
10337SOL     OW32451   2.191   5.902   3.845 -0.2783 -0.4348  0.3321
10337SOL    HW132452   2.241   5.928   3.767  2.2717 -0.8514  1.7116
10337SOL    HW232453   2.237   5.943   3.918 -1.8959 -0.9959  1.7405
10338SOL     OW32454   2.459   3.023   6.034  0.8059 -0.4144  0.3528
10338SOL    HW132455   2.549   3.024   6.001  0.5177 -0.7500 -0.4833
10338SOL    HW232456   2.407   3.052   5.959  0.2997  0.7113  1.1250
10339SOL     OW32457   6.598   4.799   1.471 -0.7777 -0.1299  0.0756
10339SOL    HW132458   6.678   4.809   1.522  0.0320 -0.6283 -1.0548
10339SOL    HW232459   6.528   4.796   1.537  0.3515 -2.3266  1.2771
10340SOL     OW32460   2.412   4.787   4.620 -0.5461  0.3481  0.4250
10340SOL    HW132461   2.324   4.777   4.581 -1.0767 -1.2366  1.8998
10340SOL    HW232462   2.402   4.857   4.684 -0.0187  1.9938 -1.2016
10341SOL     OW32463   5.110   4.005   3.969  0.4505  0.0735 -0.0452
10341SOL    HW132464   5.023   3.988   4.007  0.6994 -1.2092 -0.0090
10341SOL    HW232465   5.108   4.098   3.947 -1.2661 -0.1164 -0.8719
10342SOL     OW32466   7.511   2.484   1.589  0.0998 -0.4702  0.3805
10342SOL    HW132467   7.427   2.440   1.600  0.1657 -0.3414  1.5601
10342SOL    HW232468   7.490   2.577   1.593  0.3626 -0.4386  1.4282
10343SOL     OW32469   4.317   5.740   3.622  0.1436  0.1422 -0.4123
10343SOL    HW132470   4.374   5.682   3.673  0.7181  0.5462 -0.5962
10343SOL    HW232471   4.235   5.691   3.615  0.9996 -1.1896 -1.6088
10344SOL     OW32472   1.568   5.916   1.342  0.0981  0.8985  0.5977
10344SOL    HW132473   1.621   5.887   1.416  2.8224  0.4400 -1.3516
10344SOL    HW232474   1.506   5.978   1.379  0.2930 -0.4784  3.4536
10345SOL     OW32475   7.473   3.113   1.879 -0.4082  0.4821 -0.0719
10345SOL    HW132476   7.385   3.128   1.845  0.5526  1.3271 -2.3393
10345SOL    HW232477   7.504   3.200   1.905  0.9198  0.7763 -2.4035
10346SOL     OW32478   4.393   4.454   0.634 -0.5016  0.0210  0.3533
10346SOL    HW132479   4.472   4.489   0.595  0.5619 -0.3376  2.0721
10346SOL    HW232480   4.413   4.362   0.652 -1.1103  0.0508  1.2747
10347SOL     OW32481   5.456   7.820  12.412  0.3607 -0.4415  0.2653
10347SOL    HW132482   5.550   7.823  12.397  0.4254 -1.4527  0.3594
10347SOL    HW232483   5.418   7.798  12.327  0.2279 -0.2352  0.2709
10348SOL     OW32484   7.762   2.384  11.295  0.7721 -0.2058  0.4147
10348SOL    HW132485   7.851   2.361  11.323  0.5271 -0.5866  0.8806
10348SOL    HW232486   7.763   2.370  11.200  0.6128 -2.2466  0.6709
10349SOL     OW32487   4.112   7.296   4.251 -0.5209 -0.0693 -0.0764
10349SOL    HW132488   4.081   7.324   4.337  0.1848 -1.0909  0.5321
10349SOL    HW232489   4.046   7.330   4.190 -0.3665  1.7738  0.7150
10350SOL     OW32490   3.670   2.039   1.918 -0.5504  0.1476 -0.4950
10350SOL    HW132491   3.647   1.967   1.859  1.3870 -1.5386  0.6765
10350SOL    HW232492   3.749   2.077   1.880  0.5862 -0.8119  0.8081
10351SOL     OW32493   2.942   4.132  11.312  0.1560 -0.1121 -0.0814
10351SOL    HW132494   2.851   4.162  11.310  0.3909  0.6078 -0.1065
10351SOL    HW232495   2.953   4.094  11.399 -0.1228 -0.0550 -0.0217
10352SOL     OW32496   7.211   1.956  12.416  0.2232  0.2275 -0.2162
10352SOL    HW132497   7.251   1.869  12.410  0.8903  0.5627 -0.8978
10352SOL    HW232498   7.268   2.004  12.477 -0.1127  0.2072  0.1174
10353SOL     OW32499   4.048   6.793  10.567 -0.5181 -0.1015 -0.5853
10353SOL    HW132500   4.143   6.805  10.563 -0.2170 -1.7792  0.2934
10353SOL    HW232501   4.029   6.788  10.661 -1.3416 -0.5813 -0.7703
10354SOL     OW32502   1.441   6.314  10.417  0.2539 -0.5231 -0.1024
10354SOL    HW132503   1.533   6.301  10.441  0.1575 -0.0513  0.5340
10354SOL    HW232504   1.407   6.225  10.407  1.0414 -0.7009 -1.4059
10355SOL     OW32505   0.107   6.471  12.266  0.5093 -0.4938  0.5516
10355SOL    HW132506   0.056   6.505  12.339 -2.2560 -2.9592 -0.0501
10355SOL    HW232507   0.089   6.532  12.194  0.5463  0.0935  1.0302
10356SOL     OW32508   6.556   0.404   1.325 -0.0163 -0.1405  0.5015
10356SOL    HW132509   6.525   0.323   1.283 -1.2237 -0.8593  2.6094
10356SOL    HW232510   6.508   0.474   1.280  1.4428 -0.4523 -1.7183
10357SOL     OW32511   6.602   2.528   5.096  0.1421  0.6299 -0.0239
10357SOL    HW132512   6.523   2.566   5.058  0.8666  1.8494 -0.3467
10357SOL    HW232513   6.655   2.504   5.020  0.9626  1.7224  0.1806
10358SOL     OW32514   1.409   6.135   2.207 -0.1677 -0.2167  0.1786
10358SOL    HW132515   1.411   6.231   2.212  0.6700 -0.1544 -0.9204
10358SOL    HW232516   1.384   6.117   2.116 -1.1797 -1.0534  0.6144
10359SOL     OW32517   7.242   4.329   5.903  0.0644  0.2708  0.8228
10359SOL    HW132518   7.211   4.295   5.819  0.3809 -0.2907  0.9266
10359SOL    HW232519   7.245   4.424   5.891 -3.1063  0.5336  1.2861
10360SOL     OW32520   3.933   2.180   3.399 -0.4073  0.3560 -0.5476
10360SOL    HW132521   4.026   2.188   3.419 -0.5776 -0.7904  0.9019
10360SOL    HW232522   3.895   2.262   3.430  0.1112  0.8908 -1.2717
10361SOL     OW32523   7.572   0.568   7.267 -0.0754 -0.7873  0.2031
10361SOL    HW132524   7.591   0.621   7.344 -1.6369 -0.2155  0.2274
10361SOL    HW232525   7.478   0.549   7.274  0.0730 -1.9793 -0.7886
10362SOL     OW32526   3.525   6.364   3.376 -0.0703 -0.0265  0.0607
10362SOL    HW132527   3.612   6.405   3.379  0.1408 -0.4863  2.0307
10362SOL    HW232528   3.485   6.388   3.460 -0.4505 -2.6580  0.7492
10363SOL     OW32529   5.140   6.669  11.033  0.1559  0.3422  0.2800
10363SOL    HW132530   5.214   6.615  11.061  0.8558  0.6627 -0.8492
10363SOL    HW232531   5.118   6.722  11.110 -1.0799 -2.0515  1.6748
10364SOL     OW32532   5.010   3.544  10.237 -0.8541 -0.1869 -0.2220
10364SOL    HW132533   5.053   3.548  10.151 -0.1980  2.5487  0.1588
10364SOL    HW232534   4.990   3.451  10.248 -0.3104 -0.7490 -3.0021
10365SOL     OW32535   5.058   7.728  11.822 -0.1222 -0.1299  0.1433
10365SOL    HW132536   5.089   7.643  11.790 -1.0031 -0.5917  0.4686
10365SOL    HW232537   4.976   7.707  11.868  0.2333  0.7377  1.2014
10366SOL     OW32538   0.443   3.654   2.777  0.0408  0.2612 -0.0032
10366SOL    HW132539   0.383   3.580   2.771 -0.8452  0.9602  0.1165
10366SOL    HW232540   0.526   3.615   2.806  0.3137 -1.0528 -2.3200
10367SOL     OW32541   1.383   3.118   5.558 -0.1915 -0.1340  0.0397
10367SOL    HW132542   1.359   3.209   5.541 -1.5550 -0.3099  0.9361
10367SOL    HW232543   1.332   3.068   5.495 -0.9046 -0.3922  0.8071
10368SOL     OW32544   2.024   0.933   7.018  0.2634 -0.2637  0.2160
10368SOL    HW132545   1.984   0.865   6.964  0.5603  0.5930 -1.1283
10368SOL    HW232546   2.011   0.903   7.108 -0.9175 -1.3644 -0.2893
10369SOL     OW32547   1.056   3.633  11.984  0.0085 -0.5282  0.4369
10369SOL    HW132548   1.086   3.723  11.997  1.3826 -0.8227 -0.4576
10369SOL    HW232549   0.983   3.641  11.923 -0.5617  0.0600  1.1843
10370SOL     OW32550   7.814   0.101   7.560  0.2923 -0.9475  0.6747
10370SOL    HW132551   7.881   0.145   7.612  0.2288 -1.1316  0.9186
10370SOL    HW232552   7.854   0.017   7.536  0.1082 -1.1084  0.9221
10371SOL     OW32553   6.478   0.116   0.727  0.2488  0.5618  0.6846
10371SOL    HW132554   6.504   0.208   0.729  3.5359 -0.2406  0.4084
10371SOL    HW232555   6.488   0.086   0.818  0.1593  0.2131  0.5806
10372SOL     OW32556   7.066   7.889   6.323  0.2116  0.2020 -0.3592
10372SOL    HW132557   7.152   7.903   6.362  0.4450 -1.1152 -0.3607
10372SOL    HW232558   7.062   7.795   6.304 -0.8763  0.3822 -1.1945
10373SOL     OW32559   3.628   3.450   1.603 -0.5349 -0.3020 -0.0334
10373SOL    HW132560   3.676   3.522   1.562  0.9040 -1.1801  0.0343
10373SOL    HW232561   3.653   3.454   1.695  0.0267 -1.2133 -0.1280
10374SOL     OW32562   2.715   1.746   5.353 -0.1494  0.2807 -0.0286
10374SOL    HW132563   2.781   1.769   5.418 -0.1951 -0.9776  0.5079
10374SOL    HW232564   2.765   1.726   5.274 -0.1200  2.2104 -0.5437
10375SOL     OW32565   5.004   1.575  10.191  0.2011 -0.0300  0.0669
10375SOL    HW132566   5.058   1.555  10.267  1.0741 -0.2896 -0.5910
10375SOL    HW232567   4.932   1.513  10.194 -0.5328  0.8357  1.4011
10376SOL     OW32568   1.456   5.517   4.425  0.4095 -0.4329  0.0277
10376SOL    HW132569   1.391   5.587   4.439 -1.1634 -2.0024  1.1196
10376SOL    HW232570   1.420   5.467   4.352 -0.6505 -2.3503  1.7652
10377SOL     OW32571   6.309   1.348  11.271  0.5768  0.4810 -0.0701
10377SOL    HW132572   6.321   1.253  11.268  0.0148  0.4267 -1.5318
10377SOL    HW232573   6.302   1.368  11.364  3.4676 -0.5097  0.4529
10378SOL     OW32574   2.901   1.137   6.896 -0.1500  0.3149  0.2030
10378SOL    HW132575   2.911   1.134   6.991  2.5268 -0.9290 -0.0245
10378SOL    HW232576   2.890   1.046   6.870  3.8946 -0.0872 -0.9148
10379SOL     OW32577   2.077   6.428   1.774  0.7514  0.1912  0.3117
10379SOL    HW132578   2.083   6.508   1.722  0.1232 -0.1895 -0.3602
10379SOL    HW232579   2.154   6.431   1.831  2.1983  0.0014 -1.5271
10380SOL     OW32580   0.128   7.601   3.128  0.3297 -0.2273 -0.5977
10380SOL    HW132581   0.105   7.527   3.071  1.1338 -1.1049  0.1699
10380SOL    HW232582   0.195   7.566   3.186 -0.1951  0.7463  0.6476
10381SOL     OW32583   2.812   1.682   1.203 -0.6390  0.2826 -0.1750
10381SOL    HW132584   2.740   1.711   1.146  1.2001  3.0008 -1.3074
10381SOL    HW232585   2.867   1.760   1.213  1.9204 -1.5607  1.0346
10382SOL     OW32586   4.938   5.988   1.548 -0.1446  0.4973 -0.9059
10382SOL    HW132587   4.996   5.915   1.525  1.9501  2.2820 -1.5631
10382SOL    HW232588   4.883   5.954   1.619  1.1945 -1.5020 -0.7614
10383SOL     OW32589   2.714   2.127   3.046 -0.2130 -0.2347  0.5340
10383SOL    HW132590   2.690   2.212   3.082  0.2111  0.1881 -0.1542
10383SOL    HW232591   2.707   2.138   2.951  1.5234 -0.4384  0.3522
10384SOL     OW32592   0.630   2.628  11.072  0.3512 -0.2353 -0.0225
10384SOL    HW132593   0.662   2.562  11.011  0.5904  1.0825 -1.4100
10384SOL    HW232594   0.535   2.614  11.075  0.5409 -1.4702  0.7745
10385SOL     OW32595   2.855   2.527   5.423 -0.1976 -0.6697 -0.0862
10385SOL    HW132596   2.848   2.574   5.506 -1.3673 -1.9162  0.5686
10385SOL    HW232597   2.925   2.463   5.437  0.7137  0.1760 -0.6388
10386SOL     OW32598   0.582   3.808   3.676 -0.0126  0.4452  0.3329
10386SOL    HW132599   0.538   3.847   3.600  0.0396 -0.1986 -0.0298
10386SOL    HW232600   0.651   3.754   3.638 -0.3963 -0.3897  0.8056
10387SOL     OW32601   3.228   3.328   0.593  0.7246 -0.3964 -0.0646
10387SOL    HW132602   3.277   3.365   0.519  0.3581  0.0938 -0.0619
10387SOL    HW232603   3.137   3.328   0.564  0.7773 -1.8519 -0.2950
10388SOL     OW32604   2.427   1.783  11.553  0.6861  0.5529 -0.4647
10388SOL    HW132605   2.367   1.722  11.597 -0.9447  0.9520 -1.9907
10388SOL    HW232606   2.487   1.812  11.621  0.2171 -1.1975  0.7461
10389SOL     OW32607   2.663   5.967   5.817  0.0788 -0.0825  0.7724
10389SOL    HW132608   2.719   5.983   5.892 -0.9329 -1.7152  1.9342
10389SOL    HW232609   2.575   5.956   5.854 -0.5447 -0.3786 -0.6980
10390SOL     OW32610   6.522   7.104   6.906 -0.1271 -0.5731  0.2079
10390SOL    HW132611   6.477   7.189   6.904 -1.0928 -0.9559  2.4143
10390SOL    HW232612   6.615   7.126   6.901 -0.2589  0.8107  2.6168
10391SOL     OW32613   6.937   5.617   9.614 -0.2348  0.1695 -0.1263
10391SOL    HW132614   6.992   5.594   9.689 -0.1249 -0.0739 -0.2842
10391SOL    HW232615   6.873   5.546   9.609 -0.7175  0.5714  0.2053
10392SOL     OW32616   5.818   1.505   0.492 -0.0632 -0.0995 -0.2222
10392SOL    HW132617   5.731   1.467   0.491 -0.1921  0.2056 -1.2375
10392SOL    HW232618   5.877   1.430   0.484 -0.2373 -0.2707  0.0698
10393SOL     OW32619   5.542   4.412   1.672 -0.2755  0.1620  0.3555
10393SOL    HW132620   5.596   4.398   1.594  0.5101 -0.3668  0.9689
10393SOL    HW232621   5.461   4.365   1.653 -1.2912  2.3873 -1.2908
10394SOL     OW32622   1.158   3.824   1.391 -0.0342  0.3843  0.3609
10394SOL    HW132623   1.091   3.769   1.433  0.3120  0.3416  0.8579
10394SOL    HW232624   1.150   3.909   1.434 -1.5204  1.1875 -1.3616
10395SOL     OW32625   3.182   6.003   9.540 -0.1630  0.8201 -0.2805
10395SOL    HW132626   3.277   6.001   9.539 -0.1284  1.0068  0.9524
10395SOL    HW232627   3.158   5.964   9.624 -1.1994  0.2561 -0.8164
10396SOL     OW32628   7.366   2.277   8.471  0.5003  0.9886  0.1031
10396SOL    HW132629   7.406   2.277   8.558  0.0404  0.9706  0.3180
10396SOL    HW232630   7.275   2.304   8.486  0.7928  2.4380 -0.5546
10397SOL     OW32631   7.790   3.134   7.104 -0.0284  0.2309 -0.0385
10397SOL    HW132632   7.828   3.174   7.026 -0.5276  0.2065 -0.2936
10397SOL    HW232633   7.771   3.208   7.162 -1.7062  0.4668 -0.8366
10398SOL     OW32634   1.305   3.472   0.751 -0.7267 -0.7850  0.1468
10398SOL    HW132635   1.259   3.539   0.801 -0.1967  2.0960 -2.8388
10398SOL    HW232636   1.249   3.456   0.675  0.1839 -2.1578 -0.2683
10399SOL     OW32637   0.328   7.021   1.016 -0.2218 -0.0052 -0.4327
10399SOL    HW132638   0.397   7.079   1.048 -1.4221  1.0183  0.4068
10399SOL    HW232639   0.368   6.934   1.015  1.0295  0.5459  0.1534
10400SOL     OW32640   4.823   2.625  10.222  0.2247  0.2686  0.0502
10400SOL    HW132641   4.887   2.609  10.153  0.7154  1.9203  0.0787
10400SOL    HW232642   4.851   2.569  10.295  1.0242  0.2105 -0.2952
10401SOL     OW32643   5.231   3.751   4.815 -0.4820  0.3027 -0.2368
10401SOL    HW132644   5.151   3.798   4.837 -0.2343  0.5585  0.1370
10401SOL    HW232645   5.215   3.661   4.843 -0.4993  0.4360  0.1878
10402SOL     OW32646   2.075   0.387   1.379  0.2107 -0.2085 -0.3002
10402SOL    HW132647   2.167   0.363   1.372  0.8925  1.6685  1.1898
10402SOL    HW232648   2.050   0.362   1.468  0.1034  1.6958  0.2457
10403SOL     OW32649   2.559   3.332  11.640  0.1262 -0.0898  0.4204
10403SOL    HW132650   2.564   3.238  11.660  2.5594  0.0826  0.9927
10403SOL    HW232651   2.517   3.336  11.554  0.3952 -1.7622  0.1726
10404SOL     OW32652   0.905   1.769   4.103 -0.0108 -0.2035  0.0355
10404SOL    HW132653   0.948   1.822   4.170 -1.8040  0.6849  0.5502
10404SOL    HW232654   0.919   1.679   4.131 -0.1048  0.1327  1.1977
10405SOL     OW32655   0.731   7.180   9.814  0.1316  0.0322 -0.0915
10405SOL    HW132656   0.707   7.229   9.892  0.4211 -0.0589  0.0554
10405SOL    HW232657   0.826   7.172   9.818  0.2058  0.4796 -0.7229
10406SOL     OW32658   6.241   1.624   5.323 -0.1629  0.6104  0.0732
10406SOL    HW132659   6.293   1.612   5.402 -0.5188  2.4150  0.6183
10406SOL    HW232660   6.174   1.687   5.347 -0.8573  0.4865 -1.4122
10407SOL     OW32661   3.287   0.966   7.739  0.3300 -0.1446  0.7122
10407SOL    HW132662   3.195   0.975   7.762  0.7729  0.7686  2.2354
10407SOL    HW232663   3.314   0.884   7.780  0.0794 -0.7265 -0.2409
10408SOL     OW32664   7.786   1.240   3.364 -0.5343 -0.0934 -0.0459
10408SOL    HW132665   7.816   1.318   3.411 -0.6317 -0.3207  0.3954
10408SOL    HW232666   7.698   1.263   3.334  0.0527  0.5796 -1.3545
10409SOL     OW32667   1.539   4.514   9.007 -0.1005  0.1925  0.1673
10409SOL    HW132668   1.537   4.447   9.076 -0.3576  0.6639  0.6207
10409SOL    HW232669   1.447   4.523   8.980 -0.0557  0.3122  0.0530
10410SOL     OW32670   2.487   5.295   2.091 -0.4894 -0.5665  0.4979
10410SOL    HW132671   2.403   5.331   2.121  0.5236  1.1855  1.4359
10410SOL    HW232672   2.501   5.218   2.145 -1.0388 -0.2940  1.0490
10411SOL     OW32673   5.220   4.467   6.683 -0.0787  0.1095 -0.5120
10411SOL    HW132674   5.206   4.531   6.752  1.4871 -0.1001  0.0383
10411SOL    HW232675   5.250   4.519   6.608 -0.3386  0.1746 -0.5733
10412SOL     OW32676   7.494   1.847  11.897  0.2445 -0.3895 -0.5199
10412SOL    HW132677   7.433   1.789  11.852 -0.2255 -2.1764  2.1877
10412SOL    HW232678   7.438   1.911  11.941  0.5738  0.1438 -0.8653
10413SOL     OW32679   1.848   3.059   5.782  0.5205  0.3911  0.2167
10413SOL    HW132680   1.915   3.013   5.731  0.9158  1.2389 -0.0528
10413SOL    HW232681   1.765   3.025   5.748  0.7734  0.9886 -1.0700
10414SOL     OW32682   0.060   4.656   4.813  0.1277  0.0684  0.1209
10414SOL    HW132683  -0.034   4.660   4.830 -0.0103  1.6692 -0.8595
10414SOL    HW232684   0.068   4.629   4.722  0.6309  0.0045  0.1777
10415SOL     OW32685   0.193   1.732   8.174 -0.0312  0.0016 -0.1594
10415SOL    HW132686   0.231   1.725   8.086 -1.4909 -1.7911 -0.7216
10415SOL    HW232687   0.154   1.646   8.190 -0.5800  0.5769  1.8979
10416SOL     OW32688   1.733   2.453   7.440 -0.2467  0.9708  0.0228
10416SOL    HW132689   1.709   2.361   7.430  2.0243  0.2405  0.5873
10416SOL    HW232690   1.657   2.501   7.408 -1.7118 -1.0778  0.1813
10417SOL     OW32691   6.957   0.700  10.138  0.1093  0.2890  0.4275
10417SOL    HW132692   6.983   0.652  10.059  1.2030  2.9741 -0.9793
10417SOL    HW232693   6.890   0.645  10.178  0.4609 -1.8242 -1.6308
10418SOL     OW32694   3.011   7.795  10.343  0.5847  0.1468 -0.5062
10418SOL    HW132695   3.040   7.711  10.305  0.2180 -0.0981 -0.2553
10418SOL    HW232696   2.957   7.835  10.275 -0.8613 -0.7267  0.0744
10419SOL     OW32697   5.886   6.763   3.225 -0.1902  0.1924 -0.4324
10419SOL    HW132698   5.915   6.680   3.185 -1.1623 -0.2481 -0.2521
10419SOL    HW232699   5.791   6.755   3.229 -0.2034  0.8209  0.6898
10420SOL     OW32700   3.069   7.356   9.134 -0.1694 -0.2103  0.6448
10420SOL    HW132701   3.013   7.401   9.071  2.4120 -0.6265 -2.1619
10420SOL    HW232702   3.108   7.426   9.186 -0.7880  0.3079  0.4171
10421SOL     OW32703   3.062   4.872   8.192 -0.2475 -0.5662 -0.4862
10421SOL    HW132704   2.985   4.926   8.207 -0.8988 -1.0963 -1.7369
10421SOL    HW232705   3.027   4.785   8.172  0.7576 -1.2904  0.7957
10422SOL     OW32706   5.281   1.126  10.517  0.5190 -0.7447  0.3653
10422SOL    HW132707   5.225   1.163  10.586  1.1079 -0.2869  0.6076
10422SOL    HW232708   5.220   1.082  10.458 -0.4138  1.7801 -0.6996
10423SOL     OW32709   7.633   5.036  10.529  0.2464  0.5657 -0.3777
10423SOL    HW132710   7.676   5.108  10.482  1.5273 -0.2803 -0.5476
10423SOL    HW232711   7.608   4.974  10.460  1.2186 -0.2076 -0.0495
10424SOL     OW32712   7.901   4.158   2.993 -0.1609  0.0563 -0.2829
10424SOL    HW132713   7.856   4.113   2.922 -1.1938 -0.2990  0.5778
10424SOL    HW232714   7.925   4.243   2.956  0.0906 -0.4462 -1.3130
10425SOL     OW32715   1.935   0.432   1.631  0.1047  0.1332 -0.1179
10425SOL    HW132716   2.015   0.478   1.658  0.8100 -0.9048 -0.3900
10425SOL    HW232717   1.869   0.461   1.694  0.5332  1.4835 -0.2658
10426SOL     OW32718   5.586   0.924   4.116  0.1271 -0.2326 -0.1407
10426SOL    HW132719   5.674   0.957   4.098  0.5080 -1.5202 -0.8142
10426SOL    HW232720   5.530   1.001   4.110  1.2469  0.7106  0.7962
10427SOL     OW32721   0.254   3.588   5.116 -0.1774 -0.2317 -0.2009
10427SOL    HW132722   0.195   3.599   5.191  0.5654 -0.4871  0.4235
10427SOL    HW232723   0.195   3.572   5.042 -0.9010 -0.3358  0.3861
10428SOL     OW32724   0.788   3.778  12.008 -0.1094 -0.1149  0.0806
10428SOL    HW132725   0.716   3.795  12.069  0.4302 -1.2570  1.0565
10428SOL    HW232726   0.866   3.776  12.062  0.2465 -2.2787 -0.4517
10429SOL     OW32727   5.165   4.845   2.369 -0.0981 -0.3261 -0.0517
10429SOL    HW132728   5.124   4.771   2.325 -1.3632 -0.0397  0.5919
10429SOL    HW232729   5.174   4.912   2.301 -0.6379 -0.4249 -0.2257
10430SOL     OW32730   7.311   7.208   3.528  0.1042  0.0944  0.2519
10430SOL    HW132731   7.403   7.184   3.514  0.1748  0.6281 -0.2500
10430SOL    HW232732   7.298   7.286   3.473 -0.3284  0.7305  1.2192
10431SOL     OW32733   6.968   3.724   1.061 -0.4100  0.3195 -0.1514
10431SOL    HW132734   6.907   3.693   0.994  0.2988 -0.1491 -0.5912
10431SOL    HW232735   6.955   3.664   1.135  0.0282 -0.2224 -0.5139
10432SOL     OW32736   6.435   2.122   4.259 -0.1492  0.5942 -0.3468
10432SOL    HW132737   6.527   2.099   4.251 -0.0277  0.3239  1.3457
10432SOL    HW232738   6.410   2.088   4.345 -2.1317 -0.3683 -1.2414
10433SOL     OW32739   3.850   5.304   2.300 -0.0981  0.5814 -0.0368
10433SOL    HW132740   3.785   5.303   2.371 -0.0655  0.2370 -0.0083
10433SOL    HW232741   3.799   5.314   2.220 -0.3355 -1.2031 -0.1499
10434SOL     OW32742   0.323   2.403   5.832 -0.6795  0.0992  0.6697
10434SOL    HW132743   0.417   2.382   5.838 -0.0881  2.7900  2.8457
10434SOL    HW232744   0.287   2.336   5.774  2.0676 -2.6921  1.9097
10435SOL     OW32745   0.373   4.589  11.299 -0.2964  0.2301 -0.5141
10435SOL    HW132746   0.347   4.511  11.249 -0.2325  0.6983 -1.2934
10435SOL    HW232747   0.402   4.652  11.232 -0.9881  1.1670  0.0405
10436SOL     OW32748   5.862   2.827   5.519  0.0421  0.9044  0.2438
10436SOL    HW132749   5.946   2.860   5.488 -0.1505  0.9855 -0.1951
10436SOL    HW232750   5.803   2.836   5.444  0.1471 -1.0311 -0.1327
10437SOL     OW32751   3.129   1.844   8.787  0.1769 -0.1965 -0.2890
10437SOL    HW132752   3.218   1.871   8.765  1.2494 -1.9095  1.5984
10437SOL    HW232753   3.108   1.891   8.867 -0.4205 -0.1948 -0.4436
10438SOL     OW32754   3.930   5.811   2.165  0.1536  0.1983  0.2320
10438SOL    HW132755   3.980   5.892   2.168  0.4239  0.0907 -0.8222
10438SOL    HW232756   3.985   5.747   2.210  0.4316  0.3603  0.1259
10439SOL     OW32757   0.393   3.215  11.074 -0.1041 -0.4673  0.4165
10439SOL    HW132758   0.465   3.162  11.037  1.3253 -0.1411  2.5713
10439SOL    HW232759   0.328   3.150  11.101  1.0682 -1.1258  1.8549
10440SOL     OW32760   5.343   0.472  11.385 -1.1015 -0.2466  0.0797
10440SOL    HW132761   5.307   0.386  11.367  1.4088 -1.3003 -0.4223
10440SOL    HW232762   5.421   0.455  11.438  1.0606  1.3878 -2.3006
10441SOL     OW32763   2.414   4.573  11.302 -0.1135  0.0008 -0.3449
10441SOL    HW132764   2.387   4.663  11.286  0.1476 -0.3031 -2.7465
10441SOL    HW232765   2.333   4.522  11.296  0.0932 -0.2044 -1.4817
10442SOL     OW32766   0.811   3.486   0.770  0.0243  0.0918 -0.3642
10442SOL    HW132767   0.878   3.430   0.808 -1.0935 -0.5636  0.7147
10442SOL    HW232768   0.819   3.570   0.816 -1.3724 -0.7213  1.4741
10443SOL     OW32769   6.490   6.805   1.201  0.5185  0.0304  0.1063
10443SOL    HW132770   6.490   6.839   1.290 -1.3690 -1.2110  0.6490
10443SOL    HW232771   6.565   6.847   1.158  0.5941  1.7657  1.8353
10444SOL     OW32772   0.747   2.809   4.471 -0.5642 -0.0963 -0.3037
10444SOL    HW132773   0.765   2.715   4.480  1.4068  0.2193 -0.4585
10444SOL    HW232774   0.698   2.816   4.390 -2.5436 -1.1517  0.7134
10445SOL     OW32775   4.764   7.515   3.940  0.3791  0.6009 -0.1157
10445SOL    HW132776   4.668   7.520   3.937  0.3293 -0.6578 -1.6111
10445SOL    HW232777   4.784   7.476   4.025 -0.4657  0.2982 -0.0512
10446SOL     OW32778   5.338   2.875  12.110 -0.5331 -0.5349  0.0618
10446SOL    HW132779   5.381   2.850  12.028  0.7475 -0.2491  0.6202
10446SOL    HW232780   5.246   2.889  12.086 -0.3598 -1.3127 -1.1442
10447SOL     OW32781   2.495   2.888   3.129 -0.0737  0.0285 -0.0226
10447SOL    HW132782   2.519   2.803   3.167 -0.0295  0.5650  1.1728
10447SOL    HW232783   2.573   2.916   3.082  0.6408  0.3487  1.3112
10448SOL     OW32784   7.359   0.416   9.333  0.2077  0.0414  0.1845
10448SOL    HW132785   7.307   0.382   9.406  0.9535 -0.4073  0.5193
10448SOL    HW232786   7.366   0.510   9.349  2.1881 -0.3472  1.8919
10449SOL     OW32787   1.350   2.959   7.556 -0.2949 -0.4491  1.0893
10449SOL    HW132788   1.303   2.937   7.636  0.1838 -0.3894  1.3874
10449SOL    HW232789   1.287   3.010   7.505 -1.0527 -1.5930  0.8435
10450SOL     OW32790   3.570   1.141   1.621  0.3980  0.5406 -0.8490
10450SOL    HW132791   3.588   1.103   1.707 -0.7456 -1.6736 -1.4960
10450SOL    HW232792   3.656   1.144   1.578  0.9582  1.5390  0.2687
10451SOL     OW32793   6.445   3.316   5.289  0.1362  0.2581  0.1165
10451SOL    HW132794   6.494   3.243   5.251  0.0530  0.1041  0.2980
10451SOL    HW232795   6.512   3.378   5.318  0.3947 -1.0656  2.6539
10452SOL     OW32796   7.861   1.663   9.957 -0.0533 -0.3920 -0.4556
10452SOL    HW132797   7.869   1.706   9.872  0.0080  1.6973  0.5264
10452SOL    HW232798   7.797   1.593   9.943 -0.4844  0.2854 -2.0873
10453SOL     OW32799   1.041   2.816   1.326  0.6766  0.6378  0.4885
10453SOL    HW132800   0.946   2.827   1.313  0.5946 -1.1054 -0.7325
10453SOL    HW232801   1.048   2.744   1.388  1.2146  1.0727  0.9391
10454SOL     OW32802   1.962   2.809   6.498 -0.4352  0.3813 -0.3303
10454SOL    HW132803   1.902   2.748   6.540 -1.4345  0.6792 -1.2747
10454SOL    HW232804   1.955   2.790   6.405 -0.2405  1.4576 -0.5813
10455SOL     OW32805   7.595   2.381   5.355 -0.4350  0.1315 -0.3834
10455SOL    HW132806   7.665   2.348   5.298  2.5735  2.9458  1.3547
10455SOL    HW232807   7.553   2.451   5.304 -0.7839 -0.3214 -0.7317
10456SOL     OW32808   0.770   0.909   2.345  0.0797  0.0637 -0.1547
10456SOL    HW132809   0.811   0.836   2.297 -0.7691 -1.0573  0.7662
10456SOL    HW232810   0.798   0.987   2.298  1.3266 -0.8268 -0.9611
10457SOL     OW32811   2.914   1.332   0.589 -0.2195  0.6538 -0.2458
10457SOL    HW132812   2.996   1.344   0.542 -1.3470  1.0869 -2.2060
10457SOL    HW232813   2.858   1.404   0.561 -2.7673 -1.8922 -2.4426
10458SOL     OW32814   1.874   3.376  11.606 -0.4711  0.2850 -0.0181
10458SOL    HW132815   1.876   3.347  11.697  1.1027 -0.3688 -0.2204
10458SOL    HW232816   1.897   3.469  11.609 -4.2017  1.3423  0.5189
10459SOL     OW32817   7.880   0.755   1.440  0.2582 -0.0116 -0.3981
10459SOL    HW132818   7.797   0.710   1.455  0.2736 -0.1396 -0.6924
10459SOL    HW232819   7.930   0.695   1.384  0.0063  0.6929 -1.3935
10460SOL     OW32820   4.193   1.552  10.819  0.5090  0.2689  0.3618
10460SOL    HW132821   4.181   1.461  10.844 -0.2238  0.2355 -0.0955
10460SOL    HW232822   4.177   1.601  10.899  0.6820  0.0159  0.5539
10461SOL     OW32823   1.134   7.610  12.308 -0.1516 -0.4162  0.9852
10461SOL    HW132824   1.179   7.574  12.385  0.1317 -0.3017  0.8737
10461SOL    HW232825   1.067   7.545  12.288 -0.2583 -0.4262  1.3569
10462SOL     OW32826   3.183   1.716  12.387  0.3899 -0.3099 -0.1424
10462SOL    HW132827   3.124   1.776  12.431  0.3390  0.3023 -1.0151
10462SOL    HW232828   3.270   1.754  12.398  0.4357 -0.4063 -0.1640
10463SOL     OW32829   0.750   1.724   5.694  0.0673  0.2616 -0.4695
10463SOL    HW132830   0.837   1.687   5.712  0.7398  1.2970 -1.4607
10463SOL    HW232831   0.705   1.657   5.643 -0.2820 -0.8976  1.2931
10464SOL     OW32832   7.474   7.785   1.026  0.0529 -0.0395  0.1248
10464SOL    HW132833   7.420   7.725   0.974  0.3113 -0.2590  0.1094
10464SOL    HW232834   7.449   7.872   0.995  0.7025 -0.1848 -0.8570
10465SOL     OW32835   7.048   7.033   9.529  0.2160  0.2349 -0.1901
10465SOL    HW132836   7.108   7.108   9.534 -0.2185  0.6337 -0.7750
10465SOL    HW232837   7.007   7.029   9.616 -2.7987  3.2841 -1.2483
10466SOL     OW32838   0.419   0.774   7.588  0.7803  0.1573  0.2227
10466SOL    HW132839   0.429   0.787   7.682 -0.7922 -1.0666  0.6109
10466SOL    HW232840   0.461   0.851   7.548 -0.1682  1.6636  1.9774
10467SOL     OW32841   2.874   0.191   2.952  0.2967 -0.5727 -0.1587
10467SOL    HW132842   2.834   0.277   2.963  0.2473 -0.4427 -1.2137
10467SOL    HW232843   2.965   0.204   2.979  0.4216 -0.0470 -0.7974
10468SOL     OW32844   6.112   0.640   9.906  0.3004  0.3397  0.1655
10468SOL    HW132845   6.180   0.591   9.953  1.2172 -0.0605 -1.4715
10468SOL    HW232846   6.033   0.629   9.959  1.4101  0.4524  1.9025
10469SOL     OW32847   6.451   0.465   8.867 -0.3007 -0.2146 -0.5275
10469SOL    HW132848   6.517   0.427   8.810  1.4025  0.5635  0.8515
10469SOL    HW232849   6.380   0.400   8.867  1.1248 -1.8479 -0.7968
10470SOL     OW32850   3.305   6.460   5.549  0.1905 -0.1046 -0.7427
10470SOL    HW132851   3.290   6.379   5.599  2.0892 -0.5094 -0.7601
10470SOL    HW232852   3.231   6.464   5.488 -1.0754 -0.6813  0.6907
10471SOL     OW32853   4.946   1.254   4.106 -0.0256  0.3162 -0.2560
10471SOL    HW132854   4.862   1.256   4.150 -0.0803  0.8541 -0.3688
10471SOL    HW232855   4.930   1.207   4.024  0.3070 -1.5845  0.7350
10472SOL     OW32856   0.297   7.305   8.781 -0.3076  0.7870  0.0217
10472SOL    HW132857   0.372   7.350   8.741 -1.4024  2.3406 -0.3724
10472SOL    HW232858   0.322   7.212   8.779  2.8002  1.4026  2.4777
10473SOL     OW32859   3.570   0.653   7.005  0.0843  0.0857  0.1472
10473SOL    HW132860   3.567   0.560   6.982  0.5448  0.1131 -0.0234
10473SOL    HW232861   3.659   0.667   7.038  1.0262  1.0860 -2.5219
10474SOL     OW32862   5.159   0.761   0.540  0.3592 -0.3479 -0.4215
10474SOL    HW132863   5.166   0.729   0.630  0.1691  0.0025 -0.2794
10474SOL    HW232864   5.248   0.783   0.515  0.1066  2.5419  0.7973
10475SOL     OW32865   6.444   2.607   1.171  0.4499  0.0467  0.1805
10475SOL    HW132866   6.486   2.620   1.086 -1.5513  1.0354 -0.7325
10475SOL    HW232867   6.477   2.679   1.225 -0.2862  1.0427 -0.6435
10476SOL     OW32868   7.526   2.741   1.646  0.7152 -0.1407 -0.4068
10476SOL    HW132869   7.474   2.787   1.580  0.1502 -1.0221 -0.5883
10476SOL    HW232870   7.494   2.776   1.729  0.6282  0.1424 -0.5578
10477SOL     OW32871   3.942   2.791   8.563  0.4335 -0.8229  0.0499
10477SOL    HW132872   3.988   2.782   8.479 -0.0745 -1.6084 -0.1486
10477SOL    HW232873   3.960   2.881   8.590  1.2504 -0.8016 -0.5192
10478SOL     OW32874   2.096   0.269   2.798 -0.1923  0.2017 -0.1042
10478SOL    HW132875   2.094   0.292   2.705  2.0745  0.0784 -0.2312
10478SOL    HW232876   2.118   0.351   2.843 -0.6844  0.1307  0.2726
10479SOL     OW32877   5.656   2.562   0.131 -0.5456 -0.4282  0.3630
10479SOL    HW132878   5.664   2.509   0.051  0.4755 -0.6625  0.6052
10479SOL    HW232879   5.692   2.647   0.107  0.2430 -0.6565  0.7085
10480SOL     OW32880   6.091   5.365   9.112 -0.1804 -0.0667 -0.2900
10480SOL    HW132881   6.147   5.355   9.035 -1.0050  0.6547 -1.0042
10480SOL    HW232882   6.048   5.449   9.100 -1.7856 -0.8001 -0.0047
10481SOL     OW32883   7.168   6.068   2.386  0.0981  0.0190  0.7829
10481SOL    HW132884   7.099   6.098   2.444 -0.5047  0.1883 -0.0018
10481SOL    HW232885   7.244   6.122   2.408  0.0636 -0.3271  1.8119
10482SOL     OW32886   1.768   7.396   9.368  0.0714  0.2357  0.1308
10482SOL    HW132887   1.676   7.372   9.383 -0.0181  0.2715 -0.3493
10482SOL    HW232888   1.817   7.316   9.387 -0.0475  0.2486  0.5019
10483SOL     OW32889   4.080   6.778   7.661 -0.1411  0.0265 -0.2738
10483SOL    HW132890   4.151   6.787   7.725 -2.0370  1.6183  1.7311
10483SOL    HW232891   4.057   6.868   7.638 -1.6748 -0.4464 -0.6891
10484SOL     OW32892   5.131   2.366   0.522 -0.2103  0.2159 -0.3840
10484SOL    HW132893   5.202   2.383   0.460 -0.3677  0.2475 -0.5578
10484SOL    HW232894   5.051   2.379   0.470 -0.3387 -0.9225 -0.4829
10485SOL     OW32895   6.682   1.855  11.097  0.3788  0.0464 -0.2536
10485SOL    HW132896   6.600   1.900  11.077  0.7460  0.4537 -0.8847
10485SOL    HW232897   6.657   1.763  11.107 -0.1396  0.1487 -0.5731
10486SOL     OW32898   6.202   5.149  12.046 -0.5498  0.0059 -0.4679
10486SOL    HW132899   6.127   5.091  12.058 -0.5415  0.3511  1.4819
10486SOL    HW232900   6.257   5.103  11.981 -1.5661 -1.1181 -0.5715
10487SOL     OW32901   7.474   0.325  12.422  0.4054 -0.1269  0.0622
10487SOL    HW132902   7.422   0.334  12.342 -4.1242  1.3956  2.7570
10487SOL    HW232903   7.508   0.236  12.419 -2.4800 -1.3179 -2.1102
10488SOL     OW32904   1.581   4.114   8.158 -0.3225 -0.4548 -0.4882
10488SOL    HW132905   1.600   4.021   8.144  0.8526 -0.5671  1.4250
10488SOL    HW232906   1.665   4.158   8.147  0.0709 -0.2060  2.5452
10489SOL     OW32907   0.927   0.432   0.388 -0.2200  0.0098  0.2410
10489SOL    HW132908   0.993   0.394   0.445 -1.5494  1.3449  2.8672
10489SOL    HW232909   0.883   0.356   0.348  0.5730 -0.9981  1.2235
10490SOL     OW32910   5.905   0.005   6.327 -0.7280  0.1842 -0.3876
10490SOL    HW132911   5.888  -0.013   6.235 -2.0046 -4.0343  0.4331
10490SOL    HW232912   5.999   0.024   6.331 -0.0906 -1.9982 -2.4072
10491SOL     OW32913   6.683   2.312  10.320 -0.0341 -0.4844  0.1078
10491SOL    HW132914   6.745   2.244  10.293  0.1856  0.1845 -1.1537
10491SOL    HW232915   6.597   2.275  10.303 -0.0413 -1.4947  2.0473
10492SOL     OW32916   7.445   6.740   7.071  0.4712  0.2069 -0.3996
10492SOL    HW132917   7.493   6.814   7.108  0.7250 -0.0516 -0.2157
10492SOL    HW232918   7.357   6.747   7.109  0.3003  0.7831 -0.8740
10493SOL     OW32919   3.584   1.048   7.722  0.1753 -0.0108  0.4587
10493SOL    HW132920   3.628   0.972   7.761 -0.5139 -1.3049 -1.1353
10493SOL    HW232921   3.544   1.093   7.797  0.4863 -1.2994  1.4506
10494SOL     OW32922   4.115   1.980   7.373 -0.0737  0.3142 -0.3407
10494SOL    HW132923   4.188   1.918   7.361  1.1241  1.4459  0.7395
10494SOL    HW232924   4.105   1.987   7.468  0.1095  2.0759 -0.4197
10495SOL     OW32925   0.621   3.125   4.242  0.2840 -0.5130 -0.4757
10495SOL    HW132926   0.695   3.087   4.195 -0.7294 -1.5999 -1.2898
10495SOL    HW232927   0.557   3.053   4.245  0.1278 -0.3581  2.2214
10496SOL     OW32928   2.119   0.222   5.168 -0.3202 -0.2511 -0.5698
10496SOL    HW132929   2.075   0.185   5.245  0.9572  0.0071  0.3285
10496SOL    HW232930   2.072   0.303   5.150 -0.8742 -0.5078 -0.3059
10497SOL     OW32931   5.963   4.991   9.003 -0.2243  0.1356  0.1089
10497SOL    HW132932   5.947   4.990   9.098  1.4280 -1.4897  0.4391
10497SOL    HW232933   5.903   4.925   8.968  0.6770 -0.8679  0.3775
10498SOL     OW32934   7.587   5.671   2.840  0.0529  0.3789  0.0578
10498SOL    HW132935   7.495   5.683   2.864 -0.2990 -0.0793 -1.0032
10498SOL    HW232936   7.594   5.579   2.817  0.9673  0.2360  0.8471
10499SOL     OW32937   2.889   3.450   0.883 -0.3098 -0.6531 -0.3409
10499SOL    HW132938   2.823   3.465   0.816 -0.8416 -0.1883  0.2778
10499SOL    HW232939   2.900   3.354   0.885  0.3017 -0.6398 -1.6294
10500SOL     OW32940   3.177   2.808  10.819 -0.1112  0.2479  0.2737
10500SOL    HW132941   3.110   2.788  10.885  0.3677  0.6686  0.8984
10500SOL    HW232942   3.207   2.722  10.789  1.5918 -0.0529  2.5978
10501SOL     OW32943   3.593   1.748   9.704 -0.2222 -0.0587  0.4382
10501SOL    HW132944   3.685   1.766   9.725 -0.4029  0.0813  1.1513
10501SOL    HW232945   3.593   1.659   9.669  0.0975 -0.3505  1.1520
10502SOL     OW32946   4.417   6.092   2.486 -0.1160  0.3713  0.3646
10502SOL    HW132947   4.433   6.157   2.555  0.6386  0.3258  0.2395
10502SOL    HW232948   4.505   6.061   2.462 -0.2774  1.2240 -1.4409
10503SOL     OW32949   1.195   4.067   1.520 -0.0496 -0.4187 -0.5428
10503SOL    HW132950   1.219   4.117   1.598 -2.0681 -0.7522  0.3668
10503SOL    HW232951   1.233   4.117   1.447 -1.9355  2.5658  0.3052
10504SOL     OW32952   5.989   2.109   7.524  0.0677 -0.1036 -0.2547
10504SOL    HW132953   6.074   2.076   7.496 -0.2812 -0.4057 -0.9819
10504SOL    HW232954   6.009   2.192   7.567  0.6366  0.4235 -1.4718
10505SOL     OW32955   1.712   3.351   6.512 -0.0014 -0.2552 -0.3579
10505SOL    HW132956   1.665   3.379   6.590  2.3590  0.1286  1.0114
10505SOL    HW232957   1.786   3.412   6.504  1.7868 -2.3408 -0.8312
10506SOL     OW32958   3.865   5.846   1.842  0.3454  0.3687 -0.3453
10506SOL    HW132959   3.953   5.808   1.847 -0.7024 -2.1007  1.8759
10506SOL    HW232960   3.819   5.809   1.918 -2.1961  2.7405 -0.5758
10507SOL     OW32961   5.690   5.456   2.940  0.2628  0.5569  0.3450
10507SOL    HW132962   5.616   5.395   2.935  0.6265  0.1112  0.3164
10507SOL    HW232963   5.675   5.516   2.867  1.7355 -1.6060 -1.9270
10508SOL     OW32964   6.547   2.782   2.445 -0.1186  0.3029  0.1952
10508SOL    HW132965   6.555   2.787   2.350 -0.5043 -2.9096 -0.0864
10508SOL    HW232966   6.637   2.768   2.476 -0.2659 -1.0041  0.0685
10509SOL     OW32967   6.999   7.793   5.100  0.4156  0.4461  0.4681
10509SOL    HW132968   7.073   7.775   5.042 -0.1871 -0.1581 -0.1399
10509SOL    HW232969   7.032   7.774   5.187  1.0820  0.5229  0.2372
10510SOL     OW32970   5.204   0.664  12.127  0.1766 -0.2353 -0.2670
10510SOL    HW132971   5.189   0.622  12.212  0.2761  1.1263  0.4536
10510SOL    HW232972   5.117   0.683  12.093  0.1491 -0.0365 -0.0838
10511SOL     OW32973   2.867   5.966   3.098 -0.0072 -0.0529 -0.8764
10511SOL    HW132974   2.904   6.045   3.139  0.2863 -0.0762 -1.0920
10511SOL    HW232975   2.927   5.947   3.026 -0.2756 -0.2707 -1.0404
10512SOL     OW32976   7.682   2.119   9.905 -0.0215 -1.0319  0.0063
10512SOL    HW132977   7.658   2.032   9.936  1.5949 -0.9957  1.5224
10512SOL    HW232978   7.660   2.177   9.977  0.7499 -0.4773 -0.1838
10513SOL     OW32979   3.862   0.276   2.523 -0.2627 -0.6949  0.0992
10513SOL    HW132980   3.934   0.337   2.509  0.3692 -1.7074 -1.2095
10513SOL    HW232981   3.793   0.306   2.465 -0.0351 -1.0725 -0.3744
10514SOL     OW32982   7.157   2.023   9.067  0.0178  0.4473 -0.3545
10514SOL    HW132983   7.205   2.102   9.041  0.7198 -0.0437 -0.5718
10514SOL    HW232984   7.124   2.043   9.154  2.7817 -0.1079  0.9303
10515SOL     OW32985   5.083   5.769   3.554 -0.7914 -0.4639 -0.1659
10515SOL    HW132986   5.082   5.828   3.630 -0.7673 -1.1237  0.3512
10515SOL    HW232987   5.042   5.820   3.484 -1.2028  0.0040  0.4082
10516SOL     OW32988   6.311   2.109   9.034  0.0740 -0.4302 -0.2913
10516SOL    HW132989   6.366   2.187   9.040  1.1189 -1.0036 -1.8732
10516SOL    HW232990   6.317   2.069   9.121  0.3913  0.6603  0.2086
10517SOL     OW32991   3.186   3.133   9.004 -0.2090 -0.3055  0.1153
10517SOL    HW132992   3.125   3.153   9.075  0.5922 -0.2266  0.7967
10517SOL    HW232993   3.236   3.058   9.037 -0.8973 -1.3101 -1.0245
10518SOL     OW32994   3.488   1.781   6.830 -0.5461 -0.0145  0.1149
10518SOL    HW132995   3.432   1.853   6.860 -1.1442  0.4538 -1.9359
10518SOL    HW232996   3.431   1.729   6.773  0.4829 -0.8522 -0.1716
10519SOL     OW32997   4.008   1.190   2.691  0.0069  0.0037 -0.1145
10519SOL    HW132998   3.935   1.235   2.733  0.8180  0.9580  0.2869
10519SOL    HW232999   4.051   1.143   2.762 -0.2471 -0.6419 -0.3695
10520SOL     OW33000   1.704   2.899   1.208  0.8889  0.2650 -0.1683
10520SOL    HW133001   1.782   2.943   1.241  2.4391 -1.0442 -1.8633
10520SOL    HW233002   1.724   2.805   1.215 -1.4986 -0.2288  1.4608
10521SOL     OW33003   5.924   4.618  11.912  0.4441  0.3707  0.5493
10521SOL    HW133004   5.963   4.556  11.850 -0.0961  1.1850 -0.6367
10521SOL    HW233005   5.835   4.586  11.927  0.5791  0.1643  0.9454
10522SOL     OW33006   1.409   6.391   4.886  0.1178 -0.4135  0.2437
10522SOL    HW133007   1.475   6.438   4.936  0.1198  0.6071 -0.7042
10522SOL    HW233008   1.326   6.430   4.914  0.1350  0.3304 -0.7037
10523SOL     OW33009   6.174   1.403   6.371  0.3212  0.5609  0.3237
10523SOL    HW133010   6.173   1.475   6.434  2.6683  1.6213 -0.7142
10523SOL    HW233011   6.132   1.440   6.293  0.4297  0.4024  0.1907
10524SOL     OW33012   6.257   3.434   4.785  0.2871  0.4657  0.0573
10524SOL    HW133013   6.198   3.419   4.859 -0.0767 -0.4896 -0.3977
10524SOL    HW233014   6.248   3.527   4.766 -0.9158  0.3942  0.1476
10525SOL     OW33015   1.176   2.131   1.595  0.4828  0.1830 -0.5927
10525SOL    HW133016   1.122   2.211   1.596  0.9563  0.5074  0.6804
10525SOL    HW233017   1.265   2.163   1.606  0.6126 -0.5503  0.6486
10526SOL     OW33018   7.766   6.055  10.493  0.1852 -0.6021 -0.3964
10526SOL    HW133019   7.743   6.128  10.435 -1.4312 -0.3844  0.4714
10526SOL    HW233020   7.851   6.080  10.529 -0.2653  0.8092 -0.2259
10527SOL     OW33021   6.100   2.411   0.657 -0.3266  0.3199 -0.3813
10527SOL    HW133022   6.011   2.437   0.678  0.0608  2.2061 -0.8852
10527SOL    HW233023   6.127   2.471   0.588  1.4753  0.0579  0.0408
10528SOL     OW33024   6.690   6.036   7.279 -0.2349  0.1443  0.1469
10528SOL    HW133025   6.698   6.128   7.255 -2.4345  0.0658 -1.1352
10528SOL    HW233026   6.643   6.037   7.363 -0.3271  0.1979  0.0949
10529SOL     OW33027   6.088   3.217   2.304 -0.0857  0.7266 -0.1698
10529SOL    HW133028   6.165   3.166   2.280  0.3502  2.1506 -2.0615
10529SOL    HW233029   6.018   3.183   2.250 -0.7230 -0.2858  1.2469
10530SOL     OW33030   0.933   1.198   1.725  0.2892 -0.5578 -0.6314
10530SOL    HW133031   0.869   1.172   1.791 -0.4780  2.7983  0.1731
10530SOL    HW233032   0.946   1.121   1.671 -1.4286 -2.5175  1.5650
10531SOL     OW33033   4.936   1.439   0.753 -0.0688  0.3069  0.4009
10531SOL    HW133034   5.028   1.430   0.776 -0.2567  1.6153  1.8645
10531SOL    HW233035   4.936   1.476   0.665  0.8928  2.4075  1.2102
10532SOL     OW33036   6.746   4.941  10.554 -0.1267  0.1482 -0.4109
10532SOL    HW133037   6.798   4.992  10.615 -0.1737 -2.1833  1.7406
10532SOL    HW233038   6.666   4.920  10.602 -0.6978 -0.7876 -1.7061
10533SOL     OW33039   1.813   2.808   9.338 -0.0258 -0.1070  0.1350
10533SOL    HW133040   1.857   2.834   9.419 -0.8858  1.2887  0.1814
10533SOL    HW233041   1.870   2.842   9.268 -0.3410  0.5481  0.1867
10534SOL     OW33042   7.174   5.791   2.455  0.7628  0.3478  0.0631
10534SOL    HW133043   7.165   5.877   2.415  1.4689 -0.1544 -1.2445
10534SOL    HW233044   7.256   5.796   2.505  0.6354  0.5297  0.2545
10535SOL     OW33045   5.440   6.982   2.953 -0.0382  0.5969 -0.1503
10535SOL    HW133046   5.533   6.985   2.976 -0.2268 -1.1231  1.0416
10535SOL    HW233047   5.401   6.924   3.019 -2.0155  1.4852 -0.4600
10536SOL     OW33048   3.373   4.597  11.569 -0.0669 -0.6187 -0.4215
10536SOL    HW133049   3.410   4.682  11.545 -0.5214 -0.1957  0.3389
10536SOL    HW233050   3.407   4.580  11.657 -1.0323 -0.6025 -0.0364
10537SOL     OW33051   0.487   1.469   9.321 -0.1033 -0.4650  0.0139
10537SOL    HW133052   0.509   1.408   9.251 -0.8838 -0.3249 -0.3673
10537SOL    HW233053   0.416   1.522   9.284  0.1773  0.2855  0.5474
10538SOL     OW33054   3.342   2.242   4.992  0.4198  0.3302  0.1789
10538SOL    HW133055   3.349   2.163   4.939 -0.1992  0.2837  0.1688
10538SOL    HW233056   3.304   2.213   5.075 -0.6548  0.7502 -0.1473
10539SOL     OW33057   7.955   0.507   1.288  0.5136 -0.3855  0.5757
10539SOL    HW133058   7.869   0.478   1.258  1.0790 -0.8268 -0.6875
10539SOL    HW233059   8.016   0.469   1.226  1.5872  0.4249  1.0979
10540SOL     OW33060   7.039   7.446   9.482 -0.5500  0.3155 -0.2112
10540SOL    HW133061   7.023   7.523   9.536  0.2119  0.0695  0.3795
10540SOL    HW233062   7.117   7.405   9.520 -0.5750 -0.4020 -0.8976
10541SOL     OW33063   0.762   1.933   7.569 -0.3185  0.3121 -0.6251
10541SOL    HW133064   0.761   2.024   7.541  0.7410  0.6602  0.4086
10541SOL    HW233065   0.854   1.913   7.583 -0.5846 -0.7505 -0.2902
10542SOL     OW33066   1.971   3.740   2.000 -0.1312 -0.4310 -0.0899
10542SOL    HW133067   2.026   3.672   1.961 -1.2768 -1.2890 -0.2516
10542SOL    HW233068   2.007   3.752   2.088  1.1503  0.0036 -0.6551
10543SOL     OW33069   5.525   0.093  10.653 -0.7083 -0.8099 -0.0885
10543SOL    HW133070   5.433   0.067  10.643 -0.6768 -0.5267 -1.3018
10543SOL    HW233071   5.572   0.038  10.591 -0.5458  1.4796 -2.1446
10544SOL     OW33072   3.166   2.419  11.403  0.2762 -0.3147 -0.2702
10544SOL    HW133073   3.110   2.370  11.342 -0.7460 -0.3687  0.6657
10544SOL    HW233074   3.155   2.374  11.486  0.7204  0.4511  0.2165
10545SOL     OW33075   2.585   2.980   9.429 -0.6957  0.0598  0.6136
10545SOL    HW133076   2.538   2.937   9.500  0.8812 -3.0900 -0.0840
10545SOL    HW233077   2.611   2.909   9.370  0.0734  2.2751 -1.9252
10546SOL     OW33078   4.969   2.614  12.000 -0.5869  0.6149  0.3155
10546SOL    HW133079   5.016   2.617  12.083  2.0705 -1.0610 -1.0097
10546SOL    HW233080   4.902   2.547  12.012  1.3575 -1.4334  0.4702
10547SOL     OW33081   4.900   1.133   0.890 -0.4275 -0.5794  0.3424
10547SOL    HW133082   4.900   1.224   0.861 -0.5832 -0.5294  0.4999
10547SOL    HW233083   4.913   1.082   0.810  1.2804 -0.3541  0.4274
10548SOL     OW33084   2.049   6.074   7.436  0.0062 -0.0942 -0.0294
10548SOL    HW133085   2.058   6.072   7.532  1.8267  0.3141 -0.1663
10548SOL    HW233086   2.059   5.983   7.409 -1.7888 -0.4088  0.2298
10549SOL     OW33087   5.913   3.230   2.527 -0.5443  0.3713 -0.8606
10549SOL    HW133088   5.974   3.231   2.453  1.8622  1.1950  0.9827
10549SOL    HW233089   5.931   3.148   2.572  0.2423  1.1937  0.4160
10550SOL     OW33090   5.405   4.278  11.384 -0.3550 -0.5313 -0.4093
10550SOL    HW133091   5.445   4.295  11.298  1.0277 -0.4424  0.2276
10550SOL    HW233092   5.438   4.192  11.409  0.6069  0.1350  0.7506
10551SOL     OW33093   7.671   4.365   0.218 -0.1987 -0.0536  0.2432
10551SOL    HW133094   7.694   4.450   0.182  1.0744 -1.1582 -1.8025
10551SOL    HW233095   7.579   4.372   0.242 -1.8189  0.4689 -4.8673
10552SOL     OW33096   5.779   7.490   5.924  0.1871  0.4311  0.0143
10552SOL    HW133097   5.709   7.426   5.934 -0.9788  1.8928  1.8494
10552SOL    HW233098   5.735   7.570   5.895  1.2407  1.0739  0.1099
10553SOL     OW33099   2.315   0.259   8.371  0.2348  0.2389 -0.6750
10553SOL    HW133100   2.315   0.305   8.287 -1.7856  0.4251 -0.6212
10553SOL    HW233101   2.402   0.276   8.408 -0.1386  3.3926 -0.9981
10554SOL     OW33102   4.504   6.588  10.025  0.0607 -0.2045  0.5638
10554SOL    HW133103   4.483   6.512   9.970  0.5448 -0.4013  0.6446
10554SOL    HW233104   4.520   6.659   9.962  0.8278 -0.4824  0.4283
10555SOL     OW33105   1.695   3.114   5.204 -0.0095  0.2353 -0.5728
10555SOL    HW133106   1.707   3.154   5.290  1.3750 -1.3371  0.0128
10555SOL    HW233107   1.742   3.031   5.209 -0.3163 -0.1251 -2.7014
10556SOL     OW33108   3.002   0.415   6.583  0.8809 -0.3546 -0.3896
10556SOL    HW133109   2.962   0.328   6.591 -0.2032  0.1856  0.3151
10556SOL    HW233110   3.049   0.412   6.500 -1.2184 -0.8319 -1.6445
10557SOL     OW33111   5.649   0.947  10.478 -0.6342  0.2362 -0.5844
10557SOL    HW133112   5.660   1.040  10.463 -3.5536  0.8861  0.5966
10557SOL    HW233113   5.592   0.941  10.555  0.4674 -2.5645  0.1775
10558SOL     OW33114   0.734   3.738   2.756 -0.0649  0.0194  0.1943
10558SOL    HW133115   0.802   3.776   2.811 -0.3577  1.6128 -0.4644
10558SOL    HW233116   0.775   3.662   2.714  0.9726  0.3374  0.6097
10559SOL     OW33117   3.127   4.352   2.808  0.0919 -0.0706 -0.0823
10559SOL    HW133118   3.164   4.265   2.793 -0.2268 -0.6025  1.9260
10559SOL    HW233119   3.112   4.355   2.903 -1.4808  1.5500 -0.3482
10560SOL     OW33120   0.669   1.696   6.362 -0.3452  0.0249 -0.7490
10560SOL    HW133121   0.686   1.634   6.432  1.5476 -0.2948 -1.4508
10560SOL    HW233122   0.623   1.645   6.295 -0.9837  0.0179 -0.3230
10561SOL     OW33123   4.709   6.182   4.776  0.1252  0.0958 -0.2492
10561SOL    HW133124   4.771   6.124   4.819 -0.0507 -0.6541 -0.9799
10561SOL    HW233125   4.652   6.124   4.726 -0.7534  0.8187 -0.1146
10562SOL     OW33126   3.469   0.403   9.894  0.1716  0.3929  0.2699
10562SOL    HW133127   3.521   0.470   9.850  0.7784 -0.8362 -0.9413
10562SOL    HW233128   3.378   0.427   9.874  0.3866  0.7254 -0.3423
10563SOL     OW33129   3.182   3.763   0.070  0.3857 -0.3161 -0.0900
10563SOL    HW133130   3.242   3.818   0.120  0.6059 -0.6526  0.0233
10563SOL    HW233131   3.101   3.764   0.120 -0.6397  2.3423 -1.6143
10564SOL     OW33132   0.854   5.480  10.154 -0.3867 -0.2317  0.0985
10564SOL    HW133133   0.909   5.445  10.224 -0.5899 -0.7743 -0.0124
10564SOL    HW233134   0.915   5.525  10.095 -0.0512 -0.9102 -0.0721
10565SOL     OW33135   4.642   7.190   6.505 -0.0757 -0.1338  0.2904
10565SOL    HW133136   4.729   7.203   6.543  0.2470 -0.9771 -0.1246
10565SOL    HW233137   4.640   7.098   6.480 -1.5539 -0.4510  1.4246
10566SOL     OW33138   7.816   2.978   2.895  0.1625  0.8159 -0.6531
10566SOL    HW133139   7.775   2.978   2.808 -0.3508  1.3460 -0.4124
10566SOL    HW233140   7.855   2.891   2.903 -0.5715  0.4478 -1.0444
10567SOL     OW33141   3.532   5.797  10.614  0.2971 -0.4033  0.7270
10567SOL    HW133142   3.500   5.757  10.695  0.6148 -1.7840  0.1919
10567SOL    HW233143   3.609   5.746  10.591  1.0855  0.9232  0.3358
10568SOL     OW33144   4.383   4.004   8.974 -0.4068 -0.2746  0.3522
10568SOL    HW133145   4.391   4.094   8.942 -0.5467 -0.4959 -0.3231
10568SOL    HW233146   4.333   3.959   8.905  1.4803 -1.3955 -0.3668
10569SOL     OW33147   2.842   4.080   5.285 -0.3231  0.7660  0.4493
10569SOL    HW133148   2.914   4.027   5.251  0.5099  2.2476 -0.1811
10569SOL    HW233149   2.858   4.083   5.379  0.8370  1.6032  0.2503
10570SOL     OW33150   6.442   0.029  11.945 -0.4545 -0.0051 -0.1476
10570SOL    HW133151   6.433   0.113  11.901 -0.5754 -1.2131 -2.5972
10570SOL    HW233152   6.495   0.048  12.022 -0.4703  2.2939 -0.6359
10571SOL     OW33153   0.890   1.539   0.781  0.8256  0.0736  0.0891
10571SOL    HW133154   0.888   1.478   0.708 -0.2058 -2.7726  2.3194
10571SOL    HW233155   0.981   1.537   0.811  1.2034  1.0936 -0.9140
10572SOL     OW33156   6.995   7.505   0.143  0.6243  0.1732 -0.5173
10572SOL    HW133157   6.958   7.418   0.154 -1.2224  0.8039 -1.4761
10572SOL    HW233158   6.989   7.523   0.050  0.8050  1.3989 -0.3137
10573SOL     OW33159   2.250   6.819   0.883 -0.2823  0.1275  0.1364
10573SOL    HW133160   2.200   6.893   0.847 -1.4814 -0.6367  0.1633
10573SOL    HW233161   2.293   6.780   0.807 -0.1118  0.5083  0.0361
10574SOL     OW33162   3.772   0.537   6.516  0.2127  0.1429  0.8456
10574SOL    HW133163   3.715   0.510   6.443 -0.4933 -0.2051  1.5130
10574SOL    HW233164   3.729   0.615   6.552 -0.2554 -0.5520  1.8159
10575SOL     OW33165   0.526   6.442   5.429 -0.0934  0.3725  0.0428
10575SOL    HW133166   0.571   6.501   5.368  1.4372 -0.6832  0.1166
10575SOL    HW233167   0.509   6.497   5.506 -0.8942  1.3586 -0.7868
10576SOL     OW33168   7.317   4.810   8.346  0.2251  0.3562 -0.3791
10576SOL    HW133169   7.239   4.779   8.300  0.0910  0.0513  0.0421
10576SOL    HW233170   7.336   4.895   8.307 -0.3316  0.4451 -0.4706
10577SOL     OW33171   1.985   4.040   3.317 -0.5163 -0.5335  0.5778
10577SOL    HW133172   2.033   3.967   3.278  0.6505  0.5792 -0.1821
10577SOL    HW233173   1.948   4.087   3.242  2.3019  2.0182  0.5632
10578SOL     OW33174   0.389   4.985  10.273 -0.9761  0.0926 -0.2764
10578SOL    HW133175   0.479   5.009  10.295 -1.0854 -0.6763  1.1217
10578SOL    HW233176   0.392   4.892  10.252 -1.7091 -0.4391  1.7265
10579SOL     OW33177   7.805   2.600  10.973  0.5401  0.0696 -0.2332
10579SOL    HW133178   7.739   2.591  10.905  0.3057 -0.3713  0.0451
10579SOL    HW233179   7.887   2.574  10.931  0.6257  1.0276 -0.7018
10580SOL     OW33180   1.533   5.612   3.395 -0.1465 -0.8622 -0.0666
10580SOL    HW133181   1.488   5.671   3.455 -1.1754 -2.3230  0.6640
10580SOL    HW233182   1.559   5.667   3.322  0.9373  0.9314  1.5770
10581SOL     OW33183   6.933   5.422   7.168 -0.6090 -0.4613  0.7379
10581SOL    HW133184   7.019   5.419   7.211 -0.1010 -0.0055 -0.2270
10581SOL    HW233185   6.908   5.330   7.159 -0.6348 -0.5755  1.8131
10582SOL     OW33186   4.224   0.555   1.778 -0.4072  0.1960  0.3114
10582SOL    HW133187   4.131   0.541   1.757 -0.2300  1.0876 -1.1390
10582SOL    HW233188   4.261   0.467   1.780 -1.5294 -0.3095  2.3308
10583SOL     OW33189   0.933   0.377   6.203  0.0657  0.0529 -0.2690
10583SOL    HW133190   0.996   0.408   6.267  1.2265 -0.0314 -1.3267
10583SOL    HW233191   0.983   0.369   6.122 -1.9949  3.3045 -2.0647
10584SOL     OW33192   2.627   1.317   6.944 -0.6639 -0.3627  0.3234
10584SOL    HW133193   2.585   1.232   6.934 -1.2381 -0.2447  1.5368
10584SOL    HW233194   2.721   1.298   6.938 -0.8215 -0.9047 -0.5427
10585SOL     OW33195   0.767   6.178  10.202 -0.9414 -0.7409  0.4792
10585SOL    HW133196   0.719   6.099  10.178 -1.0439 -0.7955  0.8586
10585SOL    HW233197   0.707   6.226  10.259 -1.5501  0.4275 -1.0654
10586SOL     OW33198   4.511   0.060  10.321  0.5960 -0.1121 -0.0963
10586SOL    HW133199   4.594   0.015  10.307  0.1923 -0.9396  0.1278
10586SOL    HW233200   4.476   0.023  10.402  0.1707  0.4822  0.0016
10587SOL     OW33201   1.506   1.001   1.422  0.1709 -0.4612  0.0487
10587SOL    HW133202   1.502   1.002   1.518  1.9395 -1.3623  0.1697
10587SOL    HW233203   1.599   1.016   1.402 -0.5230  2.4491 -1.6314
10588SOL     OW33204   6.037   1.323  10.676 -0.0021  0.2169  0.2197
10588SOL    HW133205   6.024   1.334  10.770  2.3870  1.9945  0.4418
10588SOL    HW233206   5.969   1.378  10.636 -0.6681 -0.0938  0.8963
10589SOL     OW33207   5.042   5.446   0.960 -0.2800  0.3363  0.0886
10589SOL    HW133208   4.957   5.446   1.002  0.3303  0.7052  1.3854
10589SOL    HW233209   5.105   5.439   1.032  0.8016  0.5822 -0.7897
10590SOL     OW33210   7.121   7.023   3.597  0.0447  0.3353  0.0347
10590SOL    HW133211   7.178   7.099   3.610  2.3764 -1.1043 -1.0556
10590SOL    HW233212   7.179   6.955   3.562 -2.3750 -1.2608 -1.2063
10591SOL     OW33213   3.119   7.768   6.730 -0.6193 -0.6025 -0.5523
10591SOL    HW133214   3.151   7.815   6.806 -1.0180  0.6023 -1.1015
10591SOL    HW233215   3.183   7.698   6.715  0.0201 -0.1969  0.2434
10592SOL     OW33216   7.158   0.242   6.544  0.3047 -0.1946  0.8349
10592SOL    HW133217   7.072   0.201   6.532 -0.3840  0.6551  2.4172
10592SOL    HW233218   7.178   0.282   6.460 -1.2953  0.3211  0.6616
10593SOL     OW33219   0.365   3.129  11.580  0.0799 -0.0520  0.7157
10593SOL    HW133220   0.362   3.078  11.662 -1.2509  0.8852  1.2858
10593SOL    HW233221   0.284   3.105  11.535 -0.5880  1.5523  1.0110
10594SOL     OW33222   5.789   0.750   2.156 -0.5296  0.0588  0.0776
10594SOL    HW133223   5.774   0.833   2.112  0.3848 -0.1496 -0.6605
10594SOL    HW233224   5.760   0.765   2.246 -1.3530  0.8430 -0.3083
10595SOL     OW33225   7.618   5.858   0.346  0.4882  0.0777 -0.1894
10595SOL    HW133226   7.603   5.767   0.324  0.8982  0.4474 -2.1278
10595SOL    HW233227   7.533   5.890   0.375  0.4357 -0.9962  0.9187
10596SOL     OW33228   3.313   1.857   7.711  0.0303  0.4550  0.3311
10596SOL    HW133229   3.322   1.822   7.799 -0.8543  0.8681  0.5905
10596SOL    HW233230   3.401   1.891   7.690 -0.2892  2.5167  1.9790
10597SOL     OW33231   4.131   5.580  11.013  0.0237 -0.2370 -0.8736
10597SOL    HW133232   4.168   5.492  11.012  2.1808  0.5839 -2.0538
10597SOL    HW233233   4.115   5.600  10.920 -0.1942  0.6943 -0.6479
10598SOL     OW33234   7.188   5.254   0.990  0.0480 -0.1135  0.5467
10598SOL    HW133235   7.109   5.236   0.938  1.5333 -0.4693 -1.7129
10598SOL    HW233236   7.164   5.226   1.079 -2.0839 -1.0211 -0.2291
10599SOL     OW33237   3.542   4.815   3.574 -0.2534  0.3722  0.1361
10599SOL    HW133238   3.596   4.774   3.641  0.7349  0.3010 -0.6830
10599SOL    HW233239   3.583   4.899   3.557 -0.2956  0.2531 -0.6066
10600SOL     OW33240   6.713   7.290   9.130 -0.5442 -0.7124 -0.8879
10600SOL    HW133241   6.795   7.279   9.177 -0.7731 -0.9121 -0.5313
10600SOL    HW233242   6.657   7.219   9.161 -1.4979  0.4846  0.2512
10601SOL     OW33243   3.951   3.057   0.907  0.1246 -0.3104 -0.0181
10601SOL    HW133244   3.958   2.969   0.869 -2.9538  0.1785 -2.1498
10601SOL    HW233245   3.991   3.114   0.841 -0.1238  0.1011  0.1867
10602SOL     OW33246   0.455   7.362  10.488 -0.5545  0.1004  0.2478
10602SOL    HW133247   0.466   7.457  10.493  1.4970  0.0445 -1.6538
10602SOL    HW233248   0.361   7.348  10.503 -1.3316  2.6490 -1.5206
10603SOL     OW33249   4.138   7.517   4.561  0.2342 -0.1654  0.2046
10603SOL    HW133250   4.074   7.445   4.551  0.1576  0.1077 -1.5205
10603SOL    HW233251   4.222   7.476   4.543  0.1608  0.2051 -1.0931
10604SOL     OW33252   4.283   0.703   5.600  0.1915  0.8348  0.3432
10604SOL    HW133253   4.370   0.705   5.560  0.1760 -0.3072  0.2144
10604SOL    HW233254   4.300   0.692   5.694  0.1868  0.7323  0.3322
10605SOL     OW33255   5.454   5.599  10.796 -0.5797 -0.2778 -0.2055
10605SOL    HW133256   5.538   5.558  10.819 -0.5537  0.2723  0.7409
10605SOL    HW233257   5.438   5.571  10.706 -0.1578 -1.6747  0.1268
10606SOL     OW33258   1.774   6.286   4.737  0.3870  0.2748  0.4145
10606SOL    HW133259   1.751   6.347   4.667 -0.5937 -1.7896 -1.1833
10606SOL    HW233260   1.869   6.282   4.735  0.3686 -0.7800 -1.8369
10607SOL     OW33261   3.865   5.269  10.959  0.4829 -0.7710  0.4685
10607SOL    HW133262   3.831   5.196  10.906 -2.1440  0.6596  0.0273
10607SOL    HW233263   3.924   5.315  10.900 -2.3328  0.7517 -1.3931
10608SOL     OW33264   7.081   1.218   5.022 -0.2245 -0.2906 -0.4195
10608SOL    HW133265   7.155   1.213   5.084 -0.6728  0.1717  0.1676
10608SOL    HW233266   7.046   1.306   5.034  0.1162  0.0670 -1.8662
10609SOL     OW33267   4.939   2.824   4.178 -0.4559  0.5647  0.1285
10609SOL    HW133268   4.968   2.778   4.099 -0.6262 -0.3274  0.5704
10609SOL    HW233269   5.015   2.821   4.236 -1.4340 -2.1420  1.4534
10610SOL     OW33270   0.192   1.006   5.468 -0.1122 -0.2898 -0.7323
10610SOL    HW133271   0.252   1.075   5.497  0.9500 -0.8935 -1.4316
10610SOL    HW233272   0.111   1.022   5.518  0.6921  0.4119  0.3885
10611SOL     OW33273   3.138   2.363   0.348  0.2558 -0.1892 -0.0177
10611SOL    HW133274   3.134   2.276   0.309 -0.3178 -0.4999  0.7076
10611SOL    HW233275   3.062   2.367   0.406  1.1406  0.1954  1.1576
10612SOL     OW33276   4.990   1.126   8.411 -0.6583  0.1703  0.1538
10612SOL    HW133277   4.952   1.053   8.362 -2.8724  2.1387 -1.2757
10612SOL    HW233278   5.061   1.158   8.354  0.9389 -1.3240  1.2031
10613SOL     OW33279   2.235   4.770   3.732  0.2544 -0.7222 -0.4224
10613SOL    HW133280   2.239   4.715   3.654  3.0972 -2.2080  0.6322
10613SOL    HW233281   2.317   4.819   3.731  0.1178 -0.3904  1.3353
10614SOL     OW33282   0.850   1.860   6.670 -0.0199 -0.1775  0.2702
10614SOL    HW133283   0.846   1.783   6.726  0.8490 -0.1365  0.4103
10614SOL    HW233284   0.944   1.875   6.657 -0.2061 -0.2747 -1.3232
10615SOL     OW33285   0.861   3.541   3.413 -0.0979 -0.3520  0.2318
10615SOL    HW133286   0.871   3.556   3.318 -2.9596 -0.1255 -0.1033
10615SOL    HW233287   0.925   3.600   3.452  1.7733 -1.0727 -1.5356
10616SOL     OW33288   5.480   6.462  10.384 -0.2425 -0.4236  0.2691
10616SOL    HW133289   5.503   6.485  10.474  0.8584  3.3999 -0.7876
10616SOL    HW233290   5.406   6.518  10.362  1.6141  1.3402 -2.1129
10617SOL     OW33291   3.100   4.878   9.216  0.1488 -0.7189 -0.0895
10617SOL    HW133292   3.154   4.956   9.210  0.3399 -0.8964 -0.7792
10617SOL    HW233293   3.158   4.810   9.250  0.0973 -0.6715  0.0958
10618SOL     OW33294   1.802   3.136  11.930 -0.0643  0.1037 -0.2925
10618SOL    HW133295   1.879   3.094  11.968  1.4167  0.3372 -2.7926
10618SOL    HW233296   1.744   3.064  11.907 -0.0219 -0.1723  0.4513
10619SOL     OW33297   4.614   7.484  11.688  0.0962  0.3960  0.3355
10619SOL    HW133298   4.641   7.401  11.649 -1.5363  0.2903 -0.6547
10619SOL    HW233299   4.695   7.520  11.726  0.9263 -1.4046  0.3859
10620SOL     OW33300   5.085   5.413   4.533  0.1032  0.3181  0.6069
10620SOL    HW133301   5.096   5.452   4.621  0.7028  2.0346 -0.1754
10620SOL    HW233302   5.012   5.353   4.543 -2.3785  3.2052  1.5048
10621SOL     OW33303   1.691   5.853   4.758  0.0481 -0.2983  0.6483
10621SOL    HW133304   1.766   5.829   4.812  0.5357 -0.1265  0.0561
10621SOL    HW233305   1.627   5.783   4.773 -0.1372  0.1303  2.0225
10622SOL     OW33306   3.740   7.256   1.230  0.7644 -0.0210 -0.2229
10622SOL    HW133307   3.803   7.186   1.249  1.1288  0.3493 -0.0535
10622SOL    HW233308   3.658   7.210   1.214  0.5549 -0.4108  1.7428
10623SOL     OW33309   1.908   4.241   3.111  0.1648 -0.2492  0.2320
10623SOL    HW133310   2.002   4.223   3.108  0.4740  1.2125  0.3677
10623SOL    HW233311   1.869   4.173   3.055  1.1190 -1.8046  1.3631
10624SOL     OW33312   7.013   5.911   6.491  0.5110  0.2166 -0.2014
10624SOL    HW133313   7.058   5.895   6.408  0.8629  0.7702 -0.1250
10624SOL    HW233314   7.025   5.831   6.541 -2.8656 -1.6504 -2.0414
10625SOL     OW33315   5.314   3.219   4.320  0.1012 -0.3802  0.0155
10625SOL    HW133316   5.386   3.215   4.382 -1.1088 -0.3480  1.4863
10625SOL    HW233317   5.262   3.141   4.338 -1.0931  0.4039  0.1245
10626SOL     OW33318   6.432   5.876   8.522 -0.1063  0.0713  0.5373
10626SOL    HW133319   6.500   5.853   8.586 -1.7945 -1.7318  1.8210
10626SOL    HW233320   6.440   5.970   8.511  1.8735  0.0619  1.4745
10627SOL     OW33321   0.888   0.395  11.672 -0.0420  0.4409 -0.3944
10627SOL    HW133322   0.850   0.309  11.691 -0.3586  0.6545 -0.0590
10627SOL    HW233323   0.884   0.442  11.755  0.8138  0.5231 -0.3920
10628SOL     OW33324   4.297   4.842   6.015  0.5906 -0.2033  0.3620
10628SOL    HW133325   4.208   4.871   6.034  0.6098 -0.1966  0.4432
10628SOL    HW233326   4.296   4.823   5.921  0.8425  0.9588  0.1136
10629SOL     OW33327   1.688   2.567  10.054  0.0285  0.2488 -0.3076
10629SOL    HW133328   1.700   2.607  10.141 -0.9123 -1.0783  0.4790
10629SOL    HW233329   1.737   2.486  10.058  1.8461  1.1931 -1.8635
10630SOL     OW33330   1.754   7.804  10.874  0.0728  0.0869  0.0676
10630SOL    HW133331   1.848   7.809  10.887  0.3370  0.8628 -1.8784
10630SOL    HW233332   1.743   7.792  10.780 -1.7754 -0.1613  0.2762
10631SOL     OW33333   2.928   3.426  11.828 -0.2372 -0.1149 -0.0339
10631SOL    HW133334   2.857   3.477  11.789 -0.2068 -0.6398 -0.8070
10631SOL    HW233335   3.001   3.437  11.767  0.6070  1.0180  1.1242
10632SOL     OW33336   5.971   1.752   7.552  0.5925 -0.4116  0.3137
10632SOL    HW133337   5.881   1.776   7.571  0.6134  0.1001 -0.1912
10632SOL    HW233338   6.018   1.836   7.550  0.9414 -0.6114 -0.0824
10633SOL     OW33339   5.784   2.022   1.678  0.0290  0.2653 -0.1659
10633SOL    HW133340   5.708   2.080   1.681 -0.9704 -0.9194 -1.2839
10633SOL    HW233341   5.754   1.941   1.720  1.4066  0.5120  1.4012
10634SOL     OW33342   4.407   2.546   3.826 -0.1542 -0.5261  0.4236
10634SOL    HW133343   4.473   2.492   3.783 -1.2117 -0.6384 -1.1604
10634SOL    HW233344   4.443   2.564   3.912  1.4009 -1.5613  0.0353
10635SOL     OW33345   6.249   1.326   7.909  0.1361 -0.3374 -0.4990
10635SOL    HW133346   6.169   1.325   7.962 -0.8172  1.3781 -1.8276
10635SOL    HW233347   6.294   1.406   7.936  1.9014 -1.6935  0.8371
10636SOL     OW33348   6.711   0.067   9.296 -0.7297  0.4557  0.0797
10636SOL    HW133349   6.800   0.095   9.278 -0.4780 -0.2214  0.2476
10636SOL    HW233350   6.661   0.149   9.305  0.2550  0.8861  1.9783
10637SOL     OW33351   4.820   1.375   3.069 -0.3169  0.1472  0.6395
10637SOL    HW133352   4.881   1.316   3.024 -2.0339 -1.2743  0.0507
10637SOL    HW233353   4.760   1.316   3.115 -1.5268  1.4579  0.8008
10638SOL     OW33354   7.507   3.815   2.963 -0.3093 -0.6615 -0.5655
10638SOL    HW133355   7.572   3.879   2.989 -0.1339 -1.2403  0.4816
10638SOL    HW233356   7.468   3.785   3.045 -1.0621 -1.1881 -1.0976
10639SOL     OW33357   7.331   7.244   1.658 -0.0590 -0.3162 -0.2030
10639SOL    HW133358   7.384   7.251   1.738 -2.5334  0.8728  1.4589
10639SOL    HW233359   7.312   7.151   1.651  0.0373 -0.4152  0.7029
10640SOL     OW33360   0.340   7.076   5.928 -0.2406 -0.2915  0.0116
10640SOL    HW133361   0.395   7.154   5.932  0.5245 -0.6941 -1.7674
10640SOL    HW233362   0.310   7.063   6.018  0.9258  1.1071  0.6373
10641SOL     OW33363   2.961   0.874   9.846  0.2590 -0.7268 -0.3121
10641SOL    HW133364   2.872   0.842   9.859 -0.2762  0.6777 -0.2891
10641SOL    HW233365   2.950   0.968   9.829  1.8611 -0.1720  1.4715
10642SOL     OW33366   1.992   2.326   1.691 -0.0755 -0.3175 -0.1735
10642SOL    HW133367   2.024   2.239   1.666  1.6196  0.8649 -2.4746
10642SOL    HW233368   1.945   2.357   1.615 -0.1823  1.0122  0.4179
10643SOL     OW33369   5.338   3.835   2.005 -0.3427 -0.1086  0.2875
10643SOL    HW133370   5.260   3.858   1.955  1.2650  2.3060 -1.3117
10643SOL    HW233371   5.378   3.919   2.028  1.8010 -1.2504  1.0468
10644SOL     OW33372   5.559   7.300  10.738  0.7879 -0.1611 -0.0580
10644SOL    HW133373   5.593   7.223  10.693  2.4562 -0.3677  1.4271
10644SOL    HW233374   5.622   7.369  10.718 -0.0449  0.5134 -0.4048
10645SOL     OW33375   2.153   3.080   4.243  0.3252  0.4344  0.4037
10645SOL    HW133376   2.154   3.046   4.333  0.8221  1.1484  0.6700
10645SOL    HW233377   2.122   3.005   4.190 -0.6066  0.2037  1.2340
10646SOL     OW33378   7.144   7.498   1.066 -0.1641 -0.6058  0.4710
10646SOL    HW133379   7.223   7.530   1.021  1.1647 -1.2968  2.2021
10646SOL    HW233380   7.120   7.569   1.125 -1.3861 -0.0564 -0.6320
10647SOL     OW33381   1.570   5.863  12.101  0.0193 -0.0748  0.2450
10647SOL    HW133382   1.515   5.785  12.114  0.1592 -0.3490 -0.7268
10647SOL    HW233383   1.625   5.841  12.026  0.3964  0.7869  0.2578
10648SOL     OW33384   6.955   7.719   1.144 -0.0898 -0.4218  0.0497
10648SOL    HW133385   6.914   7.697   1.228 -0.6862 -1.5273 -0.5155
10648SOL    HW233386   6.882   7.722   1.082  0.3751  0.1906 -0.4759
10649SOL     OW33387   5.104   0.258  11.372  0.0456 -0.0880 -1.0202
10649SOL    HW133388   5.040   0.289  11.436  1.6016  1.9322 -0.2998
10649SOL    HW233389   5.146   0.183  11.415 -0.6878 -0.3837 -0.7971
10650SOL     OW33390   3.398   0.516   3.883  0.1234  0.2773  0.0510
10650SOL    HW133391   3.442   0.455   3.942 -0.6408 -0.0760  0.2623
10650SOL    HW233392   3.382   0.594   3.937 -1.3853 -0.3807  0.5943
10651SOL     OW33393   6.990   0.921   6.415 -0.1608 -0.2735  0.3645
10651SOL    HW133394   7.085   0.918   6.429 -0.1840  0.5930  0.7599
10651SOL    HW233395   6.978   0.895   6.324  0.5360  0.5856  0.0130
10652SOL     OW33396   0.412   7.601   8.808 -0.1919 -0.1596  0.0817
10652SOL    HW133397   0.487   7.565   8.854 -0.6320  1.0674  1.8374
10652SOL    HW233398   0.428   7.696   8.806 -0.5542 -0.0904 -1.6725
10653SOL     OW33399   1.528   5.342  12.167 -0.0608  0.0575  0.6426
10653SOL    HW133400   1.576   5.396  12.104 -3.0147  1.0587 -0.9427
10653SOL    HW233401   1.530   5.254  12.130 -1.4688  0.5734 -0.7560
10654SOL     OW33402   3.506   4.920   9.337  0.1179  0.8503  0.4486
10654SOL    HW133403   3.481   5.012   9.343  0.0272  0.8712 -0.2071
10654SOL    HW233404   3.512   4.903   9.243 -0.6122 -0.0183  0.5526
10655SOL     OW33405   6.789   5.335  11.660  0.7931 -0.3834  0.1768
10655SOL    HW133406   6.782   5.292  11.575  2.1681  0.4570 -0.4004
10655SOL    HW233407   6.847   5.277  11.710 -0.2540 -1.0343  0.6835
10656SOL     OW33408   5.421   6.491  12.378 -0.7303 -0.3655 -0.7965
10656SOL    HW133409   5.328   6.495  12.397 -0.7424 -2.5055 -0.2367
10656SOL    HW233410   5.426   6.457  12.288 -0.4756  1.1854 -1.4094
10657SOL     OW33411   2.360   5.576   6.807  0.1045 -0.0386 -0.2919
10657SOL    HW133412   2.281   5.529   6.833  1.3894 -2.0410  0.1859
10657SOL    HW233413   2.328   5.651   6.756 -2.0495 -1.2843 -0.8614
10658SOL     OW33414   1.806   0.179   6.134 -1.1708  0.2081 -0.6097
10658SOL    HW133415   1.809   0.211   6.224 -0.6046  0.4030 -0.6950
10658SOL    HW233416   1.865   0.103   6.133  0.7812  1.6433 -1.3629
10659SOL     OW33417   0.647   0.503   6.288 -0.5769  0.7767  0.0748
10659SOL    HW133418   0.741   0.492   6.302 -0.9003 -0.7009  1.3408
10659SOL    HW233419   0.609   0.419   6.310 -2.4152  1.9225  1.5813
10660SOL     OW33420   3.945   7.148   6.770  0.0457  0.3308 -0.1687
10660SOL    HW133421   4.010   7.123   6.705  0.8706 -0.9945  1.1007
10660SOL    HW233422   3.991   7.141   6.854 -1.0269  1.8252  0.5968
10661SOL     OW33423   1.775   4.250   7.876  0.1562 -0.7925  0.4974
10661SOL    HW133424   1.790   4.337   7.913  0.8245 -0.4886 -0.4379
10661SOL    HW233425   1.762   4.193   7.952 -0.5302  0.1608  1.1154
10662SOL     OW33426   3.162   7.072   4.782 -0.4396 -0.0433 -0.2066
10662SOL    HW133427   3.186   7.006   4.717 -2.1848  0.5600 -1.5547
10662SOL    HW233428   3.243   7.089   4.829  0.5275 -1.6619 -1.1678
10663SOL     OW33429   6.125   0.904   5.505 -0.6992  0.4228 -0.1014
10663SOL    HW133430   6.050   0.947   5.464 -1.1063  1.0363  1.2418
10663SOL    HW233431   6.087   0.846   5.570 -0.0244  1.1596  0.9945
10664SOL     OW33432   4.402   4.392   0.046 -0.3416 -0.3237  0.8080
10664SOL    HW133433   4.469   4.363  -0.016  0.7707 -1.8637  2.6027
10664SOL    HW233434   4.381   4.481   0.018  1.9560 -0.0265 -0.2656
10665SOL     OW33435   3.805   0.267   8.856 -0.1622 -0.0872 -0.4611
10665SOL    HW133436   3.880   0.209   8.871  0.5138  1.2114  1.5659
10665SOL    HW233437   3.842   0.347   8.822 -0.9393 -0.2728 -1.8211
10666SOL     OW33438   5.581   1.755   0.340  0.1845 -0.0392 -0.1719
10666SOL    HW133439   5.581   1.663   0.366 -0.2592 -0.3187 -1.1124
10666SOL    HW233440   5.565   1.803   0.421 -1.5714 -0.8989  0.0395
10667SOL     OW33441   2.963   4.531   3.630  0.0830 -0.2605 -0.1926
10667SOL    HW133442   3.024   4.460   3.610 -0.4646 -1.1222  1.0915
10667SOL    HW233443   2.886   4.512   3.575  0.5793  0.3027 -1.1081
10668SOL     OW33444   0.682   3.692   3.938 -0.5267  0.1348 -0.1356
10668SOL    HW133445   0.635   3.616   3.904 -0.2448 -0.3062  0.4340
10668SOL    HW233446   0.656   3.765   3.881 -1.5954 -0.1743 -0.0562
10669SOL     OW33447   6.104   3.496  10.924 -0.2177 -0.3454  0.6596
10669SOL    HW133448   6.068   3.536  11.003 -0.7268  1.1798 -0.2834
10669SOL    HW233449   6.048   3.420  10.908 -2.1649  1.0815  0.1118
10670SOL     OW33450   1.183   1.643  10.252 -0.4160 -0.1711 -0.3027
10670SOL    HW133451   1.252   1.668  10.314  0.7941 -3.4351 -0.1697
10670SOL    HW233452   1.102   1.658  10.300  0.2772  1.3003  0.4860
10671SOL     OW33453   0.309   4.757   4.845  0.1426  0.1128 -0.3611
10671SOL    HW133454   0.357   4.685   4.804  1.0475  0.9576 -0.8140
10671SOL    HW233455   0.217   4.738   4.827  0.4902  0.3590 -2.6380
10672SOL     OW33456   5.462   1.811   6.084  0.4689 -0.1985 -0.3693
10672SOL    HW133457   5.461   1.890   6.139 -1.3875 -0.9111  0.7454
10672SOL    HW233458   5.554   1.792   6.070  1.0324  0.2469  2.2495
10673SOL     OW33459   5.461   2.308   6.945 -0.5842 -0.0340 -0.0254
10673SOL    HW133460   5.506   2.390   6.966 -0.5041 -0.0916  0.0289
10673SOL    HW233461   5.380   2.312   6.995  0.5595 -1.1399  2.0397
10674SOL     OW33462   6.525   6.274   6.723 -0.3012  0.1030  0.2112
10674SOL    HW133463   6.557   6.298   6.636 -0.3270  0.1783  0.2223
10674SOL    HW233464   6.456   6.338   6.741 -0.6842 -0.2590  0.0477
10675SOL     OW33465   1.160   5.781   4.657 -0.3629  0.1955 -0.2457
10675SOL    HW133466   1.238   5.800   4.605 -0.3640 -0.2678 -0.4286
10675SOL    HW233467   1.122   5.866   4.676 -0.5145  0.3652 -1.2480
10676SOL     OW33468   1.287   5.317   3.780  0.2454 -0.0247 -0.1604
10676SOL    HW133469   1.280   5.260   3.857 -0.5152 -0.8837 -0.8440
10676SOL    HW233470   1.312   5.402   3.816  0.6459 -0.5875  0.9640
10677SOL     OW33471   0.666   2.570   9.277 -0.2655 -0.1447  0.1830
10677SOL    HW133472   0.639   2.651   9.234  0.1964 -0.0420  0.0857
10677SOL    HW233473   0.757   2.556   9.249  0.7077  0.9102  2.5668
10678SOL     OW33474   3.909   3.868   0.778 -0.0085  0.2044  0.2474
10678SOL    HW133475   3.876   3.866   0.688 -0.6404  0.0732  0.4741
10678SOL    HW233476   3.831   3.884   0.832  0.1664 -0.8659  0.8622
10679SOL     OW33477   5.113   0.236   4.478  0.3626  0.3346  0.1550
10679SOL    HW133478   5.176   0.251   4.407  2.3774 -0.2132  1.7382
10679SOL    HW233479   5.107   0.320   4.522 -0.9398  0.6920 -0.6601
10680SOL     OW33480   6.105   4.914   4.075  0.5078  0.2372  0.3621
10680SOL    HW133481   6.113   5.007   4.053 -1.2406  0.2590 -0.3133
10680SOL    HW233482   6.047   4.912   4.151  0.4233 -0.3069  0.2850
10681SOL     OW33483   0.195   4.238   1.785  0.0878  0.4278 -0.1074
10681SOL    HW133484   0.222   4.329   1.775  1.5108  0.1307  0.8515
10681SOL    HW233485   0.099   4.241   1.779  0.1633  1.8184 -1.1951
10682SOL     OW33486   3.231   7.014   4.415  0.3407  0.0066  0.2533
10682SOL    HW133487   3.287   7.066   4.474  0.3620  1.1111 -0.7026
10682SOL    HW233488   3.285   6.938   4.393  2.2352  1.8469 -1.9679
10683SOL     OW33489   2.075   1.145   3.895 -0.0365 -0.0994 -0.4454
10683SOL    HW133490   2.077   1.239   3.882 -2.0759  0.2195  1.0258
10683SOL    HW233491   1.997   1.115   3.848 -0.7580 -0.6530  1.0368
10684SOL     OW33492   6.531   2.540   2.143  0.0314 -0.2531  0.0082
10684SOL    HW133493   6.479   2.460   2.154  0.6495 -0.7390 -0.5602
10684SOL    HW233494   6.523   2.562   2.051 -0.5005  0.6087  0.2484
10685SOL     OW33495   2.866   1.786   9.010  0.4413  0.6232  0.0968
10685SOL    HW133496   2.850   1.879   9.023  0.2633  0.8544 -1.5156
10685SOL    HW233497   2.882   1.751   9.098 -1.8485  1.7068  1.0020
10686SOL     OW33498   5.419   4.853   6.240 -0.0922 -0.1639  0.7650
10686SOL    HW133499   5.506   4.816   6.253  1.5439  2.2745 -1.9080
10686SOL    HW233500   5.382   4.802   6.167  0.1113  0.2962  0.3351
10687SOL     OW33501   6.744   5.563  11.974  0.3495 -0.4110 -0.9825
10687SOL    HW133502   6.743   5.573  11.879  0.7871 -0.4306 -0.9933
10687SOL    HW233503   6.713   5.474  11.989 -1.9727  0.3438 -0.9756
10688SOL     OW33504   6.980   0.504  11.357 -0.2276  0.2289 -0.3180
10688SOL    HW133505   7.039   0.554  11.301 -0.2468  1.9269  1.0853
10688SOL    HW233506   7.036   0.444  11.405  0.2971  1.2390  0.3779
10689SOL     OW33507   1.757   6.966   0.677  0.0294 -0.5280 -0.0915
10689SOL    HW133508   1.705   6.973   0.597 -1.3049  2.6935  0.8818
10689SOL    HW233509   1.846   6.952   0.647 -0.0405  2.7828 -2.3968
10690SOL     OW33510   3.440   0.582   3.448  0.3960 -0.0560  0.1277
10690SOL    HW133511   3.486   0.519   3.503 -0.2976  0.1047  0.9014
10690SOL    HW233512   3.415   0.652   3.508 -0.5280  0.0365 -0.3555
10691SOL     OW33513   7.280   0.767   0.780  0.2185 -0.6916 -0.1292
10691SOL    HW133514   7.344   0.806   0.841 -0.4266 -0.5762  0.4832
10691SOL    HW233515   7.275   0.830   0.708  0.6948 -0.6323 -0.1157
10692SOL     OW33516   5.431   7.380  11.426  0.1112  0.3892  0.0486
10692SOL    HW133517   5.351   7.431  11.422  0.2002  0.4750 -1.6940
10692SOL    HW233518   5.479   7.405  11.347  1.0066 -1.0003  0.1110
10693SOL     OW33519   6.989   1.725   4.154 -0.0507  0.1202 -0.1863
10693SOL    HW133520   6.904   1.769   4.149 -0.0867  0.2351  1.2321
10693SOL    HW233521   6.986   1.659   4.084 -0.3312  1.7364 -1.7955
10694SOL     OW33522   5.457   7.264   3.303  0.0600 -0.5607  0.0632
10694SOL    HW133523   5.452   7.285   3.209  1.4268 -0.7191 -0.0644
10694SOL    HW233524   5.547   7.234   3.316  0.3850  0.9492  1.7267
10695SOL     OW33525   7.232   7.663  10.757  0.6489 -0.1261 -0.1881
10695SOL    HW133526   7.290   7.594  10.725  0.7187  0.4601 -1.3780
10695SOL    HW233527   7.286   7.742  10.756  1.0752 -0.2664  2.7073
10696SOL     OW33528   3.309   1.278   9.127  0.5275 -0.7677  0.2515
10696SOL    HW133529   3.326   1.372   9.133 -1.9262 -0.3647  4.5638
10696SOL    HW233530   3.226   1.272   9.079 -0.1913 -0.5252  1.4298
10697SOL     OW33531   5.975   0.742   5.669 -0.0632  0.2622  0.3622
10697SOL    HW133532   6.036   0.697   5.729 -0.2871 -0.1438  0.2856
10697SOL    HW233533   5.890   0.735   5.712 -0.0066  1.1198  0.6295
10698SOL     OW33534   0.590   1.823   3.306  0.0804 -0.0564 -0.3442
10698SOL    HW133535   0.551   1.737   3.323 -0.4272  0.5005  1.4756
10698SOL    HW233536   0.518   1.875   3.271 -0.2001  0.2614  0.6841
10699SOL     OW33537   4.900   3.202   6.461  0.1591  0.1331  0.2499
10699SOL    HW133538   4.995   3.215   6.456  0.2357 -0.3667  0.2972
10699SOL    HW233539   4.874   3.180   6.371 -0.0758  1.2849  0.0292
10700SOL     OW33540   0.549   7.871   8.835  0.5430 -0.5691 -0.6518
10700SOL    HW133541   0.525   7.846   8.924  0.6689 -0.7243 -0.6597
10700SOL    HW233542   0.637   7.907   8.843 -0.4723  2.0141 -0.2975
10701SOL     OW33543   7.943   1.562   4.009  0.3105  0.1083 -0.3505
10701SOL    HW133544   7.960   1.545   3.916 -2.2839 -0.3381 -0.8042
10701SOL    HW233545   7.923   1.656   4.012 -0.3797 -0.0359 -0.3825
10702SOL     OW33546   7.457   2.142   3.348  0.7324 -0.0303  0.1860
10702SOL    HW133547   7.491   2.116   3.433  1.5301 -1.7110 -0.5805
10702SOL    HW233548   7.521   2.107   3.285 -0.9109 -0.7183 -1.1807
10703SOL     OW33549   3.074   5.607   4.243 -0.0693 -0.3110 -0.4528
10703SOL    HW133550   3.069   5.700   4.224  1.7951 -0.0600  0.0826
10703SOL    HW233551   2.991   5.586   4.285 -0.3195  1.2150 -0.1503
10704SOL     OW33552   3.598   0.120   2.149 -0.2276  0.2370 -0.4530
10704SOL    HW133553   3.628   0.202   2.111  0.7765 -0.5291 -1.4010
10704SOL    HW233554   3.593   0.060   2.075  0.7777 -1.0235  0.4454
10705SOL     OW33555   2.159   4.147   0.728 -0.5574 -0.3501  0.3671
10705SOL    HW133556   2.186   4.066   0.685 -0.9669  0.2824 -1.1530
10705SOL    HW233557   2.154   4.211   0.658  1.8431  1.6080  1.8235
10706SOL     OW33558   2.752   2.157  11.950 -0.6393  0.2875  0.4368
10706SOL    HW133559   2.796   2.159  11.865  0.4174 -0.8415  0.9192
10706SOL    HW233560   2.824   2.167  12.014 -1.3221  0.3548  1.2123
10707SOL     OW33561   3.344   2.912   1.695  0.2015 -0.0168 -0.4387
10707SOL    HW133562   3.347   2.825   1.736 -0.3502  0.3068  0.3090
10707SOL    HW233563   3.419   2.958   1.732  0.1613  0.0114 -0.3912
10708SOL     OW33564   3.556   7.041   7.449  0.4357  0.2709 -0.0985
10708SOL    HW133565   3.558   7.125   7.403  0.6609 -0.1406 -0.8479
10708SOL    HW233566   3.482   6.994   7.409 -0.0976  0.3578  0.7622
10709SOL     OW33567   0.919   5.242   9.862  0.3105  0.2290 -0.3096
10709SOL    HW133568   0.905   5.248   9.956 -0.2867  1.3033 -0.4446
10709SOL    HW233569   0.843   5.286   9.824  0.7843  0.2414 -1.2801
10710SOL     OW33570   0.368   1.832   7.637 -0.2712 -0.1851  0.1473
10710SOL    HW133571   0.430   1.768   7.602  0.5386 -1.2827  3.2141
10710SOL    HW233572   0.422   1.907   7.662 -0.3687 -0.4893  1.3465
10711SOL     OW33573   4.803   0.315   2.580  0.0113 -0.6649  0.3615
10711SOL    HW133574   4.814   0.221   2.589  1.6517 -0.3074  2.9742
10711SOL    HW233575   4.892   0.351   2.587 -0.3927  1.0424 -1.9546
10712SOL     OW33576   3.120   0.291  12.222 -0.1580 -0.5348  0.0118
10712SOL    HW133577   3.196   0.237  12.243 -0.1004 -0.0463  1.1331
10712SOL    HW233578   3.063   0.283  12.299 -1.1298 -0.6791 -0.6989
10713SOL     OW33579   7.377   5.052   3.630 -0.0232 -0.2751  0.2288
10713SOL    HW133580   7.437   5.121   3.599 -0.6846 -0.1082 -0.7157
10713SOL    HW233581   7.427   5.006   3.697  1.2390 -0.2460 -0.6531
10714SOL     OW33582   7.143   3.882   0.449 -0.0382  0.2169  0.0182
10714SOL    HW133583   7.208   3.842   0.507 -0.6069 -0.6803  0.0597
10714SOL    HW233584   7.070   3.905   0.507 -0.0525  0.5617 -0.1351
10715SOL     OW33585   6.003   1.622   9.511  0.2851  0.1792 -0.3075
10715SOL    HW133586   5.986   1.528   9.502 -1.3572  0.3301  0.7911
10715SOL    HW233587   6.060   1.628   9.587 -1.1365  0.1505  0.8107
10716SOL     OW33588   6.113   6.142   4.970  0.4379  0.0710 -0.3525
10716SOL    HW133589   6.182   6.207   4.983  0.3459 -0.2348  2.1302
10716SOL    HW233590   6.031   6.191   4.974  0.3702 -0.1119  1.4793
10717SOL     OW33591   1.685   5.169  11.483  0.2706  0.0862  0.2989
10717SOL    HW133592   1.691   5.237  11.416  0.8444 -0.1604  0.0906
10717SOL    HW233593   1.608   5.118  11.459  0.4215  0.0524 -0.1295
10718SOL     OW33594   5.366   0.680  11.187  0.1480  0.2724 -0.2339
10718SOL    HW133595   5.362   0.592  11.223  1.1345  0.7633  1.2017
10718SOL    HW233596   5.369   0.668  11.093 -1.0447 -1.1562 -0.1198
10719SOL     OW33597   0.917   2.266  10.627  0.2056  0.9679  0.0958
10719SOL    HW133598   0.841   2.310  10.665 -0.5371 -0.8984  0.8952
10719SOL    HW233599   0.955   2.216  10.699  1.1305  0.4553 -0.7165
10720SOL     OW33600   2.228   1.569   4.228 -0.0215  0.0019 -0.1377
10720SOL    HW133601   2.196   1.579   4.318 -1.1338 -1.4348 -0.3266
10720SOL    HW233602   2.315   1.530   4.237  0.5823  1.3840  0.3243
10721SOL     OW33603   4.101   1.253   7.184  0.3196  0.2291  0.2469
10721SOL    HW133604   4.128   1.314   7.116 -0.4950  1.1837  0.7493
10721SOL    HW233605   4.087   1.170   7.138  1.4660  0.4051 -0.4408
10722SOL     OW33606   2.487   5.627   3.401  0.4764  0.1585  0.1156
10722SOL    HW133607   2.552   5.577   3.352 -0.4979 -1.9365  0.8430
10722SOL    HW233608   2.484   5.585   3.487 -1.6838  0.2854  0.1564
10723SOL     OW33609   2.006   0.500   0.802  0.1704 -0.2099 -0.2437
10723SOL    HW133610   1.978   0.518   0.712 -1.1756 -0.1690  0.1653
10723SOL    HW233611   2.089   0.453   0.792  0.9591  1.3209 -1.4592
10724SOL     OW33612   0.352   3.740   1.885  0.2549 -0.2127 -0.4553
10724SOL    HW133613   0.381   3.738   1.976  0.3516 -1.1690 -0.4968
10724SOL    HW233614   0.349   3.648   1.859 -0.0592  0.0363 -1.3287
10725SOL     OW33615   4.033   7.289  10.150 -0.2115  0.6050  0.1729
10725SOL    HW133616   3.978   7.364  10.172  1.2555  1.2975  1.6548
10725SOL    HW233617   4.054   7.249  10.235  0.8373 -0.1596 -0.4233
10726SOL     OW33618   6.980   1.448  10.685  0.2564  0.2049 -0.2013
10726SOL    HW133619   6.911   1.503  10.722 -0.4683 -0.8042 -0.0169
10726SOL    HW233620   7.061   1.480  10.725 -0.0763  1.4727 -0.5015
10727SOL     OW33621   3.034   5.290   6.826  0.0571  0.3771  0.4926
10727SOL    HW133622   2.958   5.329   6.868 -0.6716 -1.4374  0.9306
10727SOL    HW233623   3.051   5.347   6.751 -0.7518  1.6894  1.2512
10728SOL     OW33624   6.627   5.975   9.841  0.3125 -0.1542 -0.0589
10728SOL    HW133625   6.556   5.912   9.835  1.4028 -1.4519  0.3023
10728SOL    HW233626   6.690   5.935   9.900  1.2205  1.1048 -0.1304
10729SOL     OW33627   4.549   2.167   5.837  0.6639  0.1902 -0.3242
10729SOL    HW133628   4.531   2.073   5.838  1.5458  0.0023  0.9929
10729SOL    HW233629   4.617   2.178   5.771 -0.3621  0.1212 -1.4299
10730SOL     OW33630   5.368   4.364   8.301  0.1880  0.2239  0.0640
10730SOL    HW133631   5.348   4.458   8.299 -0.4785  0.1510  1.9902
10730SOL    HW233632   5.287   4.322   8.329  0.9436 -0.7772  0.8221
10731SOL     OW33633   2.840   4.297  11.987 -0.0712 -0.5617  0.1845
10731SOL    HW133634   2.779   4.316  12.059 -0.2904  0.6465 -0.3027
10731SOL    HW233635   2.816   4.208  11.959 -2.8961  0.5067 -1.2021
10732SOL     OW33636   2.080   5.325   8.552 -0.3335 -0.6860 -0.0386
10732SOL    HW133637   2.002   5.373   8.523 -0.0093  1.8854  2.8275
10732SOL    HW233638   2.055   5.233   8.550 -1.8363 -0.3432 -3.5099
10733SOL     OW33639   4.712   4.244   5.406  0.0983 -0.3547 -0.2224
10733SOL    HW133640   4.784   4.204   5.455  0.5547  0.3449 -0.3073
10733SOL    HW233641   4.746   4.252   5.317 -0.3416 -0.6470 -0.4188
10734SOL     OW33642   0.848   5.002   9.717  0.3544  0.1776  0.1056
10734SOL    HW133643   0.885   5.087   9.739 -0.3441  0.4726  0.1461
10734SOL    HW233644   0.864   4.948   9.795  0.7826  0.2701  0.0842
10735SOL     OW33645   2.898   6.597   9.938  0.1132 -0.4322 -0.8346
10735SOL    HW133646   2.822   6.647   9.911 -1.6623 -2.7953 -0.5224
10735SOL    HW233647   2.944   6.654  10.000 -1.2451  1.1400 -1.2188
10736SOL     OW33648   7.946   7.514  12.183  0.3050  0.2733  0.2860
10736SOL    HW133649   7.975   7.559  12.103 -1.1764 -1.0265 -1.0524
10736SOL    HW233650   7.913   7.429  12.152 -0.2260 -0.3159  2.3124
10737SOL     OW33651   6.070   6.981   8.530 -0.3675  0.1633 -0.1525
10737SOL    HW133652   6.053   6.987   8.624 -0.3864 -1.2357 -0.0426
10737SOL    HW233653   6.117   6.898   8.519  0.5278  0.7792 -1.2639
10738SOL     OW33654   7.060   5.915   5.392  0.1296 -0.1885 -0.2381
10738SOL    HW133655   7.143   5.868   5.403  0.8475  1.2642  0.8095
10738SOL    HW233656   6.994   5.852   5.421  0.8160 -1.4483 -1.3004
10739SOL     OW33657   1.422   2.667  10.074 -0.5164 -0.9021 -0.1531
10739SOL    HW133658   1.511   2.638  10.052 -0.0118  0.3385  0.1880
10739SOL    HW233659   1.414   2.752  10.032 -1.7124 -1.1774 -0.5298
10740SOL     OW33660   0.591   7.919  12.392 -0.4177  0.0779 -0.4423
10740SOL    HW133661   0.637   7.836  12.385  0.7053  0.6156  0.3301
10740SOL    HW233662   0.525   7.915  12.323 -1.1697 -1.9202  0.3250
10741SOL     OW33663   5.829   2.096  12.204  0.0938 -0.2339  0.1022
10741SOL    HW133664   5.905   2.128  12.254  0.9625 -0.4285 -1.0486
10741SOL    HW233665   5.857   2.011  12.170 -0.7501 -0.4338 -0.1081
10742SOL     OW33666   2.780   0.164   1.283  0.0736  0.2427  0.1746
10742SOL    HW133667   2.723   0.187   1.211  0.9785  1.8799 -0.0659
10742SOL    HW233668   2.812   0.248   1.317  0.3275 -0.5135  1.9382
10743SOL     OW33669   7.064   4.433   6.964  0.6436  0.0906 -0.3039
10743SOL    HW133670   7.041   4.395   6.879 -0.5033  0.1744 -0.0494
10743SOL    HW233671   6.981   4.437   7.011  0.9370  1.7907  0.1227
10744SOL     OW33672   1.311   7.062   3.113 -0.5065 -0.1215  0.4278
10744SOL    HW133673   1.293   7.156   3.114 -0.4727 -0.1192  1.4739
10744SOL    HW233674   1.328   7.043   3.020 -2.4578  0.5101 -0.1248
10745SOL     OW33675   6.201   7.386   3.986  0.1276  0.2759  0.0190
10745SOL    HW133676   6.265   7.317   3.969  0.5266 -0.0994  2.6175
10745SOL    HW233677   6.206   7.400   4.081 -2.7036  1.1738  0.1085
10746SOL     OW33678   7.864   5.127   0.465  0.1761  0.0172  0.3773
10746SOL    HW133679   7.946   5.175   0.449 -0.6086  1.1950 -0.2050
10746SOL    HW233680   7.852   5.073   0.386 -0.2226  0.7605 -0.0797
10747SOL     OW33681   4.429   6.343   2.108  0.3538 -0.2962 -0.0176
10747SOL    HW133682   4.522   6.323   2.124 -0.0962  0.2360  4.7923
10747SOL    HW233683   4.426   6.438   2.099  0.2404 -0.2217  0.7251
10748SOL     OW33684   5.283   4.625   8.271 -0.6039  0.4540 -0.3105
10748SOL    HW133685   5.202   4.607   8.225 -0.7438  0.3970 -0.0437
10748SOL    HW233686   5.318   4.703   8.229  0.7940 -1.2393 -2.5538
10749SOL     OW33687   7.192   1.162   0.853  0.2963 -0.0463  0.1344
10749SOL    HW133688   7.118   1.187   0.908  0.5513 -1.0756  0.9635
10749SOL    HW233689   7.253   1.118   0.912  1.7007  0.9935 -0.4847
10750SOL     OW33690   2.816   1.659   6.211  0.0737 -0.2110  0.0716
10750SOL    HW133691   2.800   1.574   6.253  0.9528 -0.3412  0.1718
10750SOL    HW233692   2.801   1.723   6.280 -0.6160 -0.2835 -0.0091
10751SOL     OW33693   1.965   6.197   1.648 -0.2988 -0.1271 -0.2649
10751SOL    HW133694   2.013   6.132   1.699  1.0011  0.0365 -1.2220
10751SOL    HW233695   2.018   6.277   1.655 -0.2986  0.0054 -1.5091
10752SOL     OW33696   2.181   6.731   0.403 -0.0574 -0.2717 -0.2493
10752SOL    HW133697   2.184   6.745   0.308  0.8707  0.5783 -0.1112
10752SOL    HW233698   2.273   6.730   0.430 -0.3021  1.9237  0.9600
10753SOL     OW33699   5.960   5.507  10.627 -0.0771 -0.3502  1.0779
10753SOL    HW133700   5.922   5.517  10.714 -0.6271  0.3935  0.7558
10753SOL    HW233701   5.927   5.581  10.577 -0.3352 -1.1442  0.0296
10754SOL     OW33702   5.672   2.401   7.808 -0.0670  0.0270 -0.4461
10754SOL    HW133703   5.635   2.328   7.856  2.6209  0.0927  2.0205
10754SOL    HW233704   5.658   2.477   7.865  2.2322  0.3176 -0.1768
10755SOL     OW33705   3.345   1.131  12.337  0.3946 -0.4454  0.2774
10755SOL    HW133706   3.264   1.108  12.381 -0.7531 -0.7623 -1.9066
10755SOL    HW233707   3.362   1.222  12.364  0.2745 -0.9037  2.0470
10756SOL     OW33708   5.189   1.287  10.798 -0.1918 -0.0579  0.3247
10756SOL    HW133709   5.158   1.232  10.870 -0.1865  0.4382  0.7129
10756SOL    HW233710   5.284   1.276  10.798 -0.1923 -0.0634  0.3901
10757SOL     OW33711   7.097   5.284  10.597  0.0683 -0.4248 -0.0521
10757SOL    HW133712   7.034   5.338  10.645  0.0970 -2.0842  2.0249
10757SOL    HW233713   7.098   5.320  10.509 -0.9420  2.0467  0.8525
10758SOL     OW33714   1.113   4.094   4.089  0.1517  0.2845 -0.0873
10758SOL    HW133715   1.106   4.007   4.051  1.0045  0.5066 -0.8046
10758SOL    HW233716   1.025   4.131   4.080 -0.2336 -0.5191  0.2886
10759SOL     OW33717   3.136   5.299   9.646  0.4129 -0.1313  0.3570
10759SOL    HW133718   3.065   5.345   9.690 -0.1341  0.0230 -0.6495
10759SOL    HW233719   3.215   5.320   9.696 -0.1681  0.1240  1.1740
10760SOL     OW33720   6.873   6.362   8.683 -0.6127 -0.3400 -0.1461
10760SOL    HW133721   6.842   6.274   8.662 -1.6577  0.0796 -0.4585
10760SOL    HW233722   6.838   6.417   8.613  0.1134  0.3093 -0.0092
10761SOL     OW33723   6.103   2.388   5.758 -0.1158  0.3887  0.1868
10761SOL    HW133724   6.036   2.432   5.706 -0.9043  0.0559  0.9043
10761SOL    HW233725   6.186   2.418   5.721 -0.6151  2.4621  0.6159
10762SOL     OW33726   1.210   3.990   9.268  0.2762 -0.5967 -0.1923
10762SOL    HW133727   1.159   3.917   9.301  1.7328 -0.6221  2.2955
10762SOL    HW233728   1.178   4.066   9.317  0.9099 -0.1675 -0.4257
10763SOL     OW33729   4.446   2.961   1.339  0.1347  0.1927 -0.1483
10763SOL    HW133730   4.511   3.030   1.350  3.1133 -2.6457  1.6502
10763SOL    HW233731   4.413   2.972   1.250  1.2286  3.2001 -0.2840
10764SOL     OW33732   0.442   3.106   7.745  0.1482 -0.0892 -0.0505
10764SOL    HW133733   0.494   3.087   7.824 -0.6103  0.7527  0.6765
10764SOL    HW233734   0.356   3.128   7.779 -0.5509 -0.9446 -1.2181
10765SOL     OW33735   2.053   3.086   9.004 -0.2921 -0.2444  0.0308
10765SOL    HW133736   2.029   3.073   9.096  1.4694 -0.2581  0.5307
10765SOL    HW233737   2.021   3.173   8.983  1.1233  0.6664  1.3663
10766SOL     OW33738   0.357   0.779   1.603  0.1636 -0.1689  0.1986
10766SOL    HW133739   0.405   0.850   1.560  0.8507 -1.2330 -0.8638
10766SOL    HW233740   0.381   0.787   1.695  0.0017  1.1376  0.1528
10767SOL     OW33741   3.688   6.937  11.753 -0.1070  0.0845 -0.4580
10767SOL    HW133742   3.596   6.960  11.740  0.6245  2.8359 -1.6521
10767SOL    HW233743   3.720   6.916  11.665  0.3203 -1.4041  0.0252
10768SOL     OW33744   6.742   4.402   4.802  0.3855 -0.4718 -0.1990
10768SOL    HW133745   6.830   4.388   4.768  0.8190  0.3012  0.5694
10768SOL    HW233746   6.755   4.447   4.886 -0.7576  0.2197 -0.3657
10769SOL     OW33747   0.406   6.592   4.269 -0.1713 -0.0534  0.5725
10769SOL    HW133748   0.387   6.685   4.276  0.6709  0.1987 -0.1808
10769SOL    HW233749   0.420   6.577   4.175  0.2873 -0.8046  0.7454
10770SOL     OW33750   5.893   1.029  10.147 -0.4469 -0.7292  0.1102
10770SOL    HW133751   5.953   1.025  10.073 -2.0415  0.4622 -1.3126
10770SOL    HW233752   5.936   1.087  10.210 -0.0985  0.1144 -0.8923
10771SOL     OW33753   1.550   6.182  10.734 -0.3916 -0.1921  0.0592
10771SOL    HW133754   1.585   6.267  10.764  2.6277 -0.7346 -1.5233
10771SOL    HW233755   1.599   6.117  10.786  0.2137 -0.9921 -1.4625
10772SOL     OW33756   7.730   6.292  10.096 -0.1965 -0.1392 -0.4365
10772SOL    HW133757   7.719   6.317  10.188  0.5581  1.0640 -0.6437
10772SOL    HW233758   7.807   6.235  10.096 -0.4895 -0.5374 -0.2621
10773SOL     OW33759   1.459   0.398   1.142  0.2131 -0.0948 -0.3585
10773SOL    HW133760   1.458   0.426   1.233 -0.9354 -1.5123  0.1037
10773SOL    HW233761   1.432   0.475   1.092  2.3806  1.1781  0.2942
10774SOL     OW33762   7.903   5.127   4.527  0.7332  0.6305 -0.2641
10774SOL    HW133763   7.935   5.037   4.538  0.8815  0.6757 -0.3237
10774SOL    HW233764   7.931   5.172   4.606 -0.9260  0.1713  0.6311
10775SOL     OW33765   7.236   4.067   2.611 -0.0981  0.2957  0.0467
10775SOL    HW133766   7.141   4.077   2.605 -0.0520  0.4094 -0.5821
10775SOL    HW233767   7.265   4.143   2.662 -0.1581  1.2654 -1.3299
10776SOL     OW33768   5.672   2.832   2.406 -0.0843 -0.1163  0.3548
10776SOL    HW133769   5.747   2.811   2.461 -0.7678 -1.6763  0.7591
10776SOL    HW233770   5.705   2.827   2.317  0.3717 -0.5171  0.5410
10777SOL     OW33771   2.041   5.740   9.484 -0.3868  0.1141 -0.5537
10777SOL    HW133772   2.002   5.662   9.523  1.1042 -1.0795 -1.3159
10777SOL    HW233773   2.118   5.758   9.539 -2.3733  3.0685  1.5958
10778SOL     OW33774   1.106   4.982   8.389 -0.9201  0.1885  0.1525
10778SOL    HW133775   1.142   4.979   8.478  1.8269 -0.7364 -0.8756
10778SOL    HW233776   1.055   4.902   8.381 -1.1279  0.2437  0.8831
10779SOL     OW33777   7.749   5.894   6.289  0.0509 -0.4897  0.1756
10779SOL    HW133778   7.760   5.959   6.358  1.6295 -0.2677 -0.2425
10779SOL    HW233779   7.836   5.885   6.250 -0.6015 -1.2747 -1.1884
10780SOL     OW33780   6.712   0.721  11.007  0.2777 -0.1772 -0.3440
10780SOL    HW133781   6.665   0.759  10.932 -0.8332 -0.6734  0.0884
10780SOL    HW233782   6.649   0.721  11.078  0.5047 -2.0050 -0.0778
10781SOL     OW33783   3.434   5.797   1.028 -0.3875  0.0289  0.3740
10781SOL    HW133784   3.465   5.799   1.119 -1.9282 -0.9752  0.9574
10781SOL    HW233785   3.389   5.881   1.016  0.4579  0.4841  0.2699
10782SOL     OW33786   3.337   1.018   1.014  0.3041 -0.3498  0.5234
10782SOL    HW133787   3.417   1.065   0.989  0.4544 -1.8448 -2.2240
10782SOL    HW233788   3.356   0.926   0.993 -1.1358 -1.1902  2.6060
10783SOL     OW33789   5.163   1.603   8.898  0.3252 -0.4407 -0.0858
10783SOL    HW133790   5.175   1.520   8.852  0.8561 -0.8588  0.7753
10783SOL    HW233791   5.110   1.656   8.838  0.1767 -1.3082 -0.7512
10784SOL     OW33792   0.188   3.721   3.696 -0.5120 -0.0612 -0.4151
10784SOL    HW133793   0.241   3.797   3.674  2.2957 -2.0756 -1.1290
10784SOL    HW233794   0.180   3.724   3.791  0.0870  0.7834 -0.3793
10785SOL     OW33795   5.138   0.607   6.479 -0.5379  0.4690  0.1750
10785SOL    HW133796   5.159   0.533   6.422 -0.2561 -0.3095  1.2528
10785SOL    HW233797   5.219   0.658   6.482 -0.5696  0.5407 -0.1613
10786SOL     OW33798   6.272   3.513   8.412 -0.2414 -0.1770  0.9021
10786SOL    HW133799   6.203   3.487   8.351  0.2584  0.6646 -0.0736
10786SOL    HW233800   6.292   3.603   8.387  0.9691 -0.2990  1.3775
10787SOL     OW33801   7.719   2.936   8.611  0.5914 -0.0830  0.7719
10787SOL    HW133802   7.792   2.930   8.549  0.0754 -1.9547  0.2732
10787SOL    HW233803   7.641   2.920   8.557 -0.1364  1.0499  1.4409
10788SOL     OW33804   4.943   1.622   8.666  0.0499  0.3547 -0.0081
10788SOL    HW133805   4.869   1.639   8.725 -0.9158  2.6386 -1.7271
10788SOL    HW233806   4.906   1.567   8.597  0.1438  0.9032 -0.4983
10789SOL     OW33807   5.605   6.705  12.293  0.2338 -0.0720 -0.0794
10789SOL    HW133808   5.591   6.799  12.298  0.1226 -0.0689 -0.4213
10789SOL    HW233809   5.525   6.666  12.330 -0.8453 -0.0606 -2.2640
10790SOL     OW33810   2.028   1.371   9.911 -1.1719  0.3057  0.1606
10790SOL    HW133811   1.961   1.315   9.950 -0.3804 -0.7926 -0.0299
10790SOL    HW233812   2.110   1.341   9.948 -0.6015  0.4921 -0.9067
10791SOL     OW33813   0.691   4.260   0.562 -0.9032  0.2851  0.4377
10791SOL    HW133814   0.619   4.222   0.512 -0.1118 -0.3824 -0.2077
10791SOL    HW233815   0.709   4.343   0.519  0.1108 -0.5157 -0.7288
10792SOL     OW33816   3.247   6.525  10.896 -0.1295  0.5375 -0.9157
10792SOL    HW133817   3.174   6.477  10.935  0.2510  1.0232  0.4644
10792SOL    HW233818   3.294   6.460  10.845 -0.1984 -0.3299  0.0903
10793SOL     OW33819   7.686   2.954   2.607 -0.0952  0.4520  0.1564
10793SOL    HW133820   7.592   2.940   2.610 -0.0244  0.0897  2.1498
10793SOL    HW233821   7.719   2.887   2.548 -0.9588 -0.3003  0.5175
10794SOL     OW33822   7.208   0.437   9.561  0.3514 -0.0760 -0.0717
10794SOL    HW133823   7.152   0.511   9.584  0.6403 -0.2552  1.2727
10794SOL    HW233824   7.149   0.362   9.561  0.3332 -0.0620 -0.0126
10795SOL     OW33825   4.323   4.945  10.370  0.3805 -0.8033 -0.5534
10795SOL    HW133826   4.345   4.881  10.303  0.8394 -0.0517 -1.1316
10795SOL    HW233827   4.406   4.963  10.414  0.2238 -0.7275 -0.2862
10796SOL     OW33828   7.363   7.132  11.645 -0.2105  0.1311  0.1075
10796SOL    HW133829   7.316   7.119  11.563  1.1895 -1.2459 -0.5226
10796SOL    HW233830   7.294   7.131  11.712 -1.3699  1.2419 -0.9987
10797SOL     OW33831   2.414   5.673  10.631  0.1370  0.4753 -0.4104
10797SOL    HW133832   2.395   5.722  10.711 -1.1743  1.1036 -1.0754
10797SOL    HW233833   2.436   5.585  10.662 -2.2552  0.1483  0.5826
10798SOL     OW33834   7.462   6.431   9.674 -0.1881  0.4506 -0.5445
10798SOL    HW133835   7.474   6.341   9.704 -0.3218 -0.2706 -2.5036
10798SOL    HW233836   7.488   6.429   9.582 -2.3314  1.8695 -1.2679
10799SOL     OW33837   0.008   1.951  11.591  0.9169  0.0804 -0.1625
10799SOL    HW133838   0.041   1.872  11.635 -1.1361  0.0503  1.4575
10799SOL    HW233839  -0.064   1.919  11.536  0.9055  0.6625 -0.4944
10800SOL     OW33840   4.009   0.934   0.765 -0.4857  0.5798 -0.5523
10800SOL    HW133841   3.916   0.920   0.784 -0.1016 -1.1878  0.2412
10800SOL    HW233842   4.022   1.028   0.776 -1.5635  0.4826  2.4398
10801SOL     OW33843   1.167   5.999   9.738  0.0278 -0.0075 -0.0503
10801SOL    HW133844   1.121   6.081   9.721  0.0279 -0.3915 -2.1136
10801SOL    HW233845   1.226   6.020   9.811 -0.7222  1.5022  0.1732
10802SOL     OW33846   6.341   7.870   1.336  0.5719  0.0722  0.1091
10802SOL    HW133847   6.303   7.887   1.250  0.1161  1.8907  0.6280
10802SOL    HW233848   6.421   7.821   1.317 -0.7366 -1.6869 -1.1611
10803SOL     OW33849   0.146   2.785   5.451  0.1419 -0.2379  0.2874
10803SOL    HW133850   0.156   2.714   5.388 -0.9722  0.3501 -0.5968
10803SOL    HW233851   0.171   2.747   5.535  1.7300 -1.0308 -0.4994
10804SOL     OW33852   5.006   1.253   7.235  0.0521 -0.4058 -0.1340
10804SOL    HW133853   5.086   1.246   7.286 -0.0018  0.0985  0.0289
10804SOL    HW233854   4.955   1.321   7.279 -1.3663 -2.0854  0.9662
10805SOL     OW33855   4.555   1.171   0.283 -0.4246 -0.0117  0.1971
10805SOL    HW133856   4.489   1.139   0.345  0.4103 -0.0110  1.1067
10805SOL    HW233857   4.514   1.160   0.197 -1.1825 -1.0439  0.6682
10806SOL     OW33858   4.486   0.051   3.564  0.7938 -0.0982  0.0223
10806SOL    HW133859   4.397   0.081   3.544  0.0323 -3.2882 -2.3123
10806SOL    HW233860   4.539   0.130   3.564 -1.7293  1.7242 -0.4021
10807SOL     OW33861   3.623   1.571   2.393 -0.1167 -0.2308  0.0333
10807SOL    HW133862   3.682   1.532   2.328 -0.2007 -0.7654  0.2696
10807SOL    HW233863   3.566   1.628   2.342  1.6623  1.6251  0.0118
10808SOL     OW33864   5.060   3.225   3.408  0.0999 -0.4351 -0.3261
10808SOL    HW133865   5.074   3.185   3.493 -0.0822  0.2488  0.0344
10808SOL    HW233866   5.141   3.210   3.360  0.6112  0.1149  0.3544
10809SOL     OW33867   6.077   3.723   3.636  0.5081 -0.0019  0.2663
10809SOL    HW133868   6.156   3.722   3.581  0.7005  0.3337  0.5309
10809SOL    HW233869   6.006   3.745   3.576  0.8663  1.3814  0.3337
10810SOL     OW33870   1.293   1.121   3.390  0.2809 -0.1560 -0.1890
10810SOL    HW133871   1.302   1.184   3.319 -1.2374  1.1252  0.6832
10810SOL    HW233872   1.205   1.136   3.424  1.3442  0.0871  2.7076
10811SOL     OW33873   0.866   6.570   9.967  0.0932 -0.0621  0.4571
10811SOL    HW133874   0.808   6.495   9.955 -0.0728 -0.0064  0.9248
10811SOL    HW233875   0.953   6.532   9.980  0.0485 -0.1640  0.4544
10812SOL     OW33876   6.802   6.812   7.616  0.3393 -0.2135  0.2610
10812SOL    HW133877   6.832   6.742   7.675 -3.0168 -0.6078  1.7636
10812SOL    HW233878   6.740   6.769   7.558 -2.4905  1.5242  1.7938
10813SOL     OW33879   3.409   1.292  10.210  0.7129 -0.0877  0.7241
10813SOL    HW133880   3.482   1.264  10.155  0.4779 -1.9251  1.2890
10813SOL    HW233881   3.358   1.351  10.154  1.5991 -0.2783 -0.3081
10814SOL     OW33882   2.931   5.669  10.531  0.4074  0.1430 -0.0699
10814SOL    HW133883   2.876   5.720  10.591  0.1844  1.4661 -1.3524
10814SOL    HW233884   2.933   5.582  10.570 -1.1194  0.5261  0.9760
10815SOL     OW33885   1.792   0.491  11.146  0.1917  0.9936  0.1064
10815SOL    HW133886   1.779   0.452  11.233  0.3392  1.2415  0.2404
10815SOL    HW233887   1.838   0.424  11.096 -0.5625  0.5486 -0.0180
10816SOL     OW33888   4.775   0.157  11.887  0.2882 -0.3462 -0.5098
10816SOL    HW133889   4.704   0.220  11.893  1.1068  0.8764 -2.6801
10816SOL    HW233890   4.815   0.158  11.974 -1.3150  0.1510  0.2525
10817SOL     OW33891   7.790   1.767   2.298  0.5634  0.0941 -0.0985
10817SOL    HW133892   7.797   1.835   2.231  2.8164  0.0466  0.0058
10817SOL    HW233893   7.802   1.685   2.250 -2.9054 -0.4295 -0.3527
10818SOL     OW33894   5.429   0.360   8.434 -0.0930  0.2362  0.0620
10818SOL    HW133895   5.338   0.388   8.446 -0.0873  0.3301 -0.0983
10818SOL    HW233896   5.469   0.432   8.385 -0.4160 -0.6215 -1.5355
10819SOL     OW33897   6.897   0.830   1.065 -0.9008 -0.1687  0.1403
10819SOL    HW133898   6.984   0.837   1.105  0.3893  0.9633 -2.5609
10819SOL    HW233899   6.850   0.768   1.120  1.5887 -0.7815  1.7589
10820SOL     OW33900   3.827   4.990   4.990  0.3768 -0.0266  0.0830
10820SOL    HW133901   3.742   4.958   5.020  0.4469 -0.8003 -0.5147
10820SOL    HW233902   3.846   5.065   5.046  0.0691 -0.8502  1.3313
10821SOL     OW33903   7.786   4.902   6.438 -0.5517 -0.3742 -0.5379
10821SOL    HW133904   7.806   4.820   6.392 -0.0926 -0.3990 -0.2979
10821SOL    HW233905   7.693   4.915   6.423 -1.2442 -2.2791  1.5180
10822SOL     OW33906   2.841   0.735   9.612  0.5935 -0.3102 -0.5104
10822SOL    HW133907   2.748   0.755   9.621  0.3260 -1.1241 -1.4359
10822SOL    HW233908   2.884   0.800   9.668 -0.6653 -1.6884  2.3024
10823SOL     OW33909   3.283   2.010   9.240  0.2047 -0.2952  0.0110
10823SOL    HW133910   3.361   2.065   9.233  0.1786 -0.2913 -0.2629
10823SOL    HW233911   3.252   2.023   9.329 -0.7092  1.3793 -0.5059
10824SOL     OW33912   3.732   1.236   2.031 -0.1409  0.0772 -0.4257
10824SOL    HW133913   3.689   1.150   2.037 -0.4888  0.3091  0.5736
10824SOL    HW233914   3.670   1.297   2.071  0.0465  0.8244 -1.2531
10825SOL     OW33915   5.318   6.153   7.194  0.0520  0.2962  0.6700
10825SOL    HW133916   5.412   6.145   7.175 -0.1876 -1.0136 -0.1469
10825SOL    HW233917   5.280   6.190   7.114 -0.2449 -0.0881  0.6291
10826SOL     OW33918   2.829   5.249  11.614 -0.2023 -0.2832  0.3720
10826SOL    HW133919   2.893   5.203  11.560 -0.2302 -0.1964  0.2644
10826SOL    HW233920   2.865   5.245  11.703 -1.0230 -2.0028  0.6781
10827SOL     OW33921   4.111   1.177   0.797  0.3974 -0.4788 -0.1968
10827SOL    HW133922   4.144   1.204   0.883  1.8300 -1.2588 -0.4710
10827SOL    HW233923   4.116   1.256   0.743 -2.5553  0.6004  0.9550
10828SOL     OW33924   7.287   1.702   4.690  0.1610 -0.8422  0.8504
10828SOL    HW133925   7.364   1.743   4.730  0.3867 -1.6022  1.2147
10828SOL    HW233926   7.232   1.677   4.764 -0.5022 -0.1989  0.5866
10829SOL     OW33927   5.360   5.868   3.841  0.2259 -0.2203 -0.0300
10829SOL    HW133928   5.371   5.860   3.935  1.5427  0.6287 -0.0836
10829SOL    HW233929   5.268   5.892   3.828  0.1490  0.0931  1.0529
10830SOL     OW33930   6.926   4.795  11.115 -0.3644  0.4508 -0.4743
10830SOL    HW133931   6.848   4.751  11.081 -1.0252  0.8017  0.5494
10830SOL    HW233932   6.994   4.776  11.050  0.0959 -4.1048  0.9798
10831SOL     OW33933   5.827   6.642   3.819 -0.2650 -0.1584 -0.0736
10831SOL    HW133934   5.821   6.725   3.866 -0.6905  0.9350 -1.9731
10831SOL    HW233935   5.736   6.619   3.799 -0.2527 -1.6921  1.3430
10832SOL     OW33936   6.571   4.360   3.552  0.0606  0.5076 -1.0054
10832SOL    HW133937   6.488   4.385   3.512 -0.7150 -1.8093 -0.9445
10832SOL    HW233938   6.634   4.364   3.479 -0.7663 -0.8568 -1.8304
10833SOL     OW33939   0.057   0.569  11.210 -0.3754 -0.3192 -0.1312
10833SOL    HW133940  -0.002   0.630  11.166  1.0739  0.5355 -0.9783
10833SOL    HW233941   0.135   0.621  11.229  1.0079 -1.9464 -1.0745
10834SOL     OW33942   1.222   5.447  10.295  0.2514  0.2997 -0.9004
10834SOL    HW133943   1.287   5.509  10.327  0.0180  0.5830 -0.9670
10834SOL    HW233944   1.249   5.427  10.206 -0.6554  1.7077 -1.5391
10835SOL     OW33945   5.076   0.860   1.185  0.0112 -0.2064  0.5328
10835SOL    HW133946   5.160   0.834   1.148  1.0208 -1.0932  3.2278
10835SOL    HW233947   5.080   0.955   1.190  0.3914 -0.1715 -0.3335
10836SOL     OW33948   6.971   5.995   5.140  0.3519 -0.3948  0.1532
10836SOL    HW133949   7.017   5.990   5.224  1.8481 -0.0592 -0.6138
10836SOL    HW233950   6.973   5.905   5.107  0.4051 -0.3896  0.1426
10837SOL     OW33951   5.820   4.553   1.781 -0.1898 -0.2265 -0.3283
10837SOL    HW133952   5.910   4.580   1.804  0.2023 -1.4818 -0.3212
10837SOL    HW233953   5.806   4.588   1.694  1.5235 -2.6337 -1.6981
10838SOL     OW33954   5.399   4.509   1.202  0.3820  0.0667  0.3800
10838SOL    HW133955   5.304   4.515   1.199  0.3688 -0.0860  0.4935
10838SOL    HW233956   5.417   4.425   1.242  0.5672 -0.4340 -0.7038
10839SOL     OW33957   3.919   5.848   7.351  0.1582 -0.3079 -0.2058
10839SOL    HW133958   3.970   5.906   7.295 -0.3417  1.4140  1.0361
10839SOL    HW233959   3.856   5.906   7.395  0.5677 -1.5453  2.1838
10840SOL     OW33960   3.091   4.613   1.309 -0.4571  0.2227  0.3256
10840SOL    HW133961   3.034   4.571   1.374 -0.6119  1.9343  1.3573
10840SOL    HW233962   3.180   4.585   1.333 -0.6546 -0.4486  0.2729
10841SOL     OW33963   0.305   2.983   7.479  0.0283  0.4105 -0.2364
10841SOL    HW133964   0.253   2.947   7.550  0.1936  1.2075  0.2960
10841SOL    HW233965   0.244   2.989   7.405 -0.3756  0.3972  0.0945
10842SOL     OW33966   0.549   1.257   9.517 -0.7091  0.0708 -0.0352
10842SOL    HW133967   0.539   1.342   9.475 -1.9876 -0.1689 -0.2642
10842SOL    HW233968   0.581   1.277   9.605 -1.6797  0.8449  0.1550
10843SOL     OW33969   2.941   0.904  10.704  0.0105 -0.8554  0.3972
10843SOL    HW133970   3.027   0.860  10.702  0.9349  0.8771 -1.3698
10843SOL    HW233971   2.891   0.862  10.634 -0.5837 -1.7589  1.3270
10844SOL     OW33972   1.044   3.670  11.682 -0.7333  0.0975 -0.6239
10844SOL    HW133973   1.058   3.600  11.618 -0.4265  0.1221 -0.5856
10844SOL    HW233974   0.952   3.662  11.706 -0.9773  0.4154 -1.4460
10845SOL     OW33975   7.204   3.463   6.904 -0.3874 -0.2316  0.0535
10845SOL    HW133976   7.195   3.501   6.992 -1.9343 -0.3835 -0.0087
10845SOL    HW233977   7.249   3.531   6.853 -2.2710  1.2084  0.1798
10846SOL     OW33978   6.903   3.920   7.149 -0.0583  0.2639  0.3504
10846SOL    HW133979   6.816   3.888   7.126 -0.7549  0.7065  2.1816
10846SOL    HW233980   6.963   3.869   7.094 -1.4032 -0.9177 -0.0768
10847SOL     OW33981   1.835   1.458  10.822  0.1302  0.0814  0.1142
10847SOL    HW133982   1.827   1.378  10.873  1.7264  0.1745  0.5628
10847SOL    HW233983   1.782   1.443  10.744 -0.9861 -0.7164  0.9928
10848SOL     OW33984   3.819   3.692  11.196  0.2862  0.0458 -0.0286
10848SOL    HW133985   3.789   3.640  11.121 -0.0787 -1.7414  1.2907
10848SOL    HW233986   3.912   3.670  11.205  0.7052  1.3986 -0.8208
10849SOL     OW33987   0.603   1.491  10.614 -0.0217 -0.2589  0.0411
10849SOL    HW133988   0.693   1.482  10.582  0.2831 -0.4640  0.9054
10849SOL    HW233989   0.549   1.491  10.536  0.7463  0.0055 -0.4979
10850SOL     OW33990   1.953   5.573  12.266 -0.1553 -0.3269  0.1499
10850SOL    HW133991   1.951   5.526  12.349 -2.6255  0.9698  0.9113
10850SOL    HW233992   1.874   5.625  12.266  0.7777  1.2480 -2.1718
10851SOL     OW33993   6.536   0.274   8.239 -0.4467  0.0948  0.3159
10851SOL    HW133994   6.620   0.262   8.283 -0.1034  0.7507 -0.1530
10851SOL    HW233995   6.473   0.229   8.295  0.2764 -0.7853  0.4464
10852SOL     OW33996   2.735   3.769   7.358 -0.1909  0.0870 -0.0744
10852SOL    HW133997   2.663   3.813   7.403 -0.3527  0.4170 -0.6428
10852SOL    HW233998   2.813   3.813   7.390 -0.1410 -0.9667  1.3434
10853SOL     OW33999   5.148   6.432   5.868  0.1354 -0.0239 -0.5830
10853SOL    HW134000   5.060   6.434   5.904  0.9032  2.9204  1.5749
10853SOL    HW234001   5.201   6.391   5.937  0.6192 -0.7181 -1.3571
10854SOL     OW34002   1.616   2.528   0.192 -0.0678  0.4794  0.1460
10854SOL    HW134003   1.598   2.541   0.285  0.1829 -1.1161  0.4440
10854SOL    HW234004   1.635   2.434   0.184 -1.3375  0.3224 -1.7122
10855SOL     OW34005   4.945   4.600   7.484  0.0765  0.4521 -0.0612
10855SOL    HW134006   4.935   4.695   7.484 -0.3687  0.4764  2.6927
10855SOL    HW234007   5.021   4.583   7.539 -1.6116 -0.8217  2.0570
10856SOL     OW34008   5.433   3.592   5.017 -0.9445  0.0969 -0.1155
10856SOL    HW134009   5.392   3.506   5.031 -1.0472  0.2330  0.4590
10856SOL    HW234010   5.393   3.625   4.937  0.2952 -1.0999 -1.2586
10857SOL     OW34011   6.765   2.725   7.336 -0.1396  0.6749  0.3344
10857SOL    HW134012   6.769   2.634   7.363  1.8862 -0.1225 -2.3118
10857SOL    HW234013   6.673   2.750   7.351 -1.1008 -2.1995 -0.1332
10858SOL     OW34014   0.762   7.768  10.656 -0.2886 -0.1907 -0.1577
10858SOL    HW134015   0.845   7.762  10.702 -1.2875 -2.4479  1.5291
10858SOL    HW234016   0.780   7.738  10.567  0.6714 -0.7291  0.2153
10859SOL     OW34017   6.333   1.284   7.216 -0.6726  0.1481 -0.1064
10859SOL    HW134018   6.331   1.194   7.248  0.6956 -0.7463 -2.3496
10859SOL    HW234019   6.421   1.315   7.237 -0.7184  0.5343 -0.4810
10860SOL     OW34020   0.844   5.015   2.948  0.2530  0.3246  0.0743
10860SOL    HW134021   0.915   4.998   2.886 -1.3316 -0.3263 -1.6456
10860SOL    HW234022   0.767   4.975   2.908 -0.9736  0.4299  2.1983
10861SOL     OW34023   2.454   6.385   1.092 -0.3771  0.7802  0.4981
10861SOL    HW134024   2.402   6.307   1.075 -0.1789  0.6912  0.2790
10861SOL    HW234025   2.418   6.451   1.032  1.3947 -0.0045 -1.5475
10862SOL     OW34026   3.305   3.936   3.891  0.5148 -0.1617 -0.2318
10862SOL    HW134027   3.344   3.857   3.928 -1.0317 -1.1996 -0.6730
10862SOL    HW234028   3.300   3.918   3.797 -1.1009 -0.1672 -0.1839
10863SOL     OW34029   2.539   3.780   2.696 -0.0672  0.2307 -0.2365
10863SOL    HW134030   2.470   3.749   2.637  0.1243 -1.8950  0.5697
10863SOL    HW234031   2.493   3.801   2.778  0.0244  0.4659 -0.2450
10864SOL     OW34032   1.347   7.736   4.239  0.3218 -0.3851 -0.0012
10864SOL    HW134033   1.414   7.756   4.174  0.7117  1.1985  0.8416
10864SOL    HW234034   1.270   7.785   4.211  0.2247 -0.3868  0.2584
10865SOL     OW34035   7.338   5.012  10.494 -0.0563  0.7210 -0.4835
10865SOL    HW134036   7.428   5.030  10.519  0.5101  1.3794 -2.7677
10865SOL    HW234037   7.334   5.032  10.400 -2.2601 -0.5087 -0.7317
10866SOL     OW34038   4.731   7.640   8.781 -0.7192 -0.1996 -0.1983
10866SOL    HW134039   4.679   7.574   8.734 -2.6166  0.5964  0.6884
10866SOL    HW234040   4.786   7.589   8.841 -0.1789 -1.0801 -1.3901
10867SOL     OW34041   3.856   0.758   2.280  0.0179  0.3554 -0.4301
10867SOL    HW134042   3.914   0.741   2.206 -0.9656 -1.5525 -0.8100
10867SOL    HW234043   3.862   0.853   2.294 -1.1595  1.1436 -4.1384
10868SOL     OW34044   5.855   4.394  12.229 -0.0650 -0.1830  0.2173
10868SOL    HW134045   5.792   4.324  12.244  0.3738 -1.2458 -2.4491
10868SOL    HW234046   5.917   4.386  12.301 -1.6376 -0.6002  1.5856
10869SOL     OW34047   5.158   2.721   6.832 -0.3976  0.4347 -0.1193
10869SOL    HW134048   5.143   2.627   6.825 -1.1124  0.3729  1.6923
10869SOL    HW234049   5.091   2.760   6.776  0.3140 -0.1248 -1.3960
10870SOL     OW34050   3.025   4.107   1.818 -0.2331  0.6552  0.3449
10870SOL    HW134051   3.007   4.177   1.880  1.4230 -0.5137  2.2627
10870SOL    HW234052   3.014   4.026   1.869  2.6153 -0.3133 -0.4064
10871SOL     OW34053   4.588   2.160  11.144 -0.1730 -0.4529  0.3316
10871SOL    HW134054   4.575   2.248  11.109 -0.6971  0.0389  1.6851
10871SOL    HW234055   4.677   2.136  11.116 -0.0744  0.4502 -0.1732
10872SOL     OW34056   7.822   2.210   3.403  0.1856 -0.5253 -0.1805
10872SOL    HW134057   7.738   2.207   3.448  0.3854 -0.1061  0.2191
10872SOL    HW234058   7.887   2.213   3.473  0.6071 -2.1914 -0.4545
10873SOL     OW34059   1.530   6.334   0.272 -0.0549 -0.2549 -0.0132
10873SOL    HW134060   1.571   6.272   0.332  1.9425  0.8793 -0.0968
10873SOL    HW234061   1.440   6.304   0.264  0.4982 -2.3606  0.9391
10874SOL     OW34062   4.712   6.179  10.621 -0.3226 -0.6791  0.8933
10874SOL    HW134063   4.793   6.129  10.618  0.1892  0.1708 -0.5728
10874SOL    HW234064   4.739   6.269  10.604 -1.5328 -0.3267  0.7610
10875SOL     OW34065   1.314   7.019  11.076  0.0533  0.6504 -0.3482
10875SOL    HW134066   1.231   7.009  11.123  0.2002  1.5386  0.1145
10875SOL    HW234067   1.305   6.963  10.999 -1.0725  0.9351 -0.4344
10876SOL     OW34068   1.410   3.572   8.526 -0.5300 -0.3770 -0.0550
10876SOL    HW134069   1.326   3.593   8.566  0.1904  1.1287  0.7472
10876SOL    HW234070   1.471   3.564   8.600  0.6144  1.4306 -0.7339
10877SOL     OW34071   7.239   3.705  11.373  0.0304 -0.6122 -0.1790
10877SOL    HW134072   7.210   3.632  11.317 -0.4482 -1.1995  0.8106
10877SOL    HW234073   7.173   3.772  11.361  1.5236  0.5629 -2.7085
10878SOL     OW34074   2.871   3.247  11.533  0.2541 -0.0417  0.0278
10878SOL    HW134075   2.944   3.241  11.595 -0.4806  1.2953  1.0618
10878SOL    HW234076   2.814   3.174  11.556  0.5656 -0.2508  0.1498
10879SOL     OW34077   3.000   7.455   1.283 -0.3646  0.0609  0.5797
10879SOL    HW134078   3.063   7.387   1.310 -0.1438 -0.2009 -0.5319
10879SOL    HW234079   3.021   7.530   1.338 -0.5906 -0.7565  1.8135
10880SOL     OW34080   7.714   2.498   6.327 -0.5191 -0.2202 -0.5772
10880SOL    HW134081   7.718   2.548   6.409  1.1063  0.0006 -0.7699
10880SOL    HW234082   7.630   2.523   6.288 -1.2471 -0.2083  0.9349
10881SOL     OW34083   7.478   2.774  11.310 -0.3840  0.7547  0.5114
10881SOL    HW134084   7.416   2.707  11.337  0.3032 -0.1976 -0.2043
10881SOL    HW234085   7.564   2.733  11.317 -0.0289  1.1126 -1.1238
10882SOL     OW34086   7.555   1.223   0.630  0.3136  0.1816  1.4892
10882SOL    HW134087   7.519   1.164   0.564 -0.0858  2.7025 -0.6954
10882SOL    HW234088   7.639   1.252   0.593 -0.3137  2.3043  1.6022
10883SOL     OW34089   5.927   7.663   0.782  0.6840 -0.2232  0.0784
10883SOL    HW134090   5.912   7.577   0.744  2.1709 -0.0848 -0.9061
10883SOL    HW234091   5.902   7.724   0.712  2.0981  0.0596 -0.2135
10884SOL     OW34092   7.510   2.586   6.675 -0.1257  0.0526  0.6366
10884SOL    HW134093   7.477   2.514   6.620 -0.9378 -0.0879  1.2946
10884SOL    HW234094   7.438   2.606   6.734 -0.0817  1.7170  0.1896
10885SOL     OW34095   2.437   3.497   1.117 -0.3095 -0.8537  0.2821
10885SOL    HW134096   2.421   3.427   1.053  0.4455 -1.5879  0.8661
10885SOL    HW234097   2.453   3.575   1.064  0.2993 -1.4538 -0.4346
10886SOL     OW34098   4.782   7.355   0.272 -0.6492  0.3864 -0.3477
10886SOL    HW134099   4.790   7.324   0.182 -0.3580 -0.3769 -0.0672
10886SOL    HW234100   4.703   7.314   0.305  0.2907 -0.9230  0.3532
10887SOL     OW34101   5.764   7.718   0.993  0.2193 -0.3142  0.3365
10887SOL    HW134102   5.688   7.733   0.937  0.0304  1.4708  1.0122
10887SOL    HW234103   5.832   7.686   0.933 -0.4697 -0.0171 -0.6206
10888SOL     OW34104   5.794   1.724   5.156 -0.0539  0.4418 -0.9674
10888SOL    HW134105   5.754   1.803   5.119  0.1197 -0.1360 -2.4542
10888SOL    HW234106   5.824   1.674   5.080  0.6765 -0.6251 -0.0166
10889SOL     OW34107   2.325   0.085   5.063  0.0937  0.1601  0.1684
10889SOL    HW134108   2.366   0.133   4.990  1.4940  0.9997  1.4562
10889SOL    HW234109   2.242   0.129   5.077 -0.6451 -0.5981 -1.4918
10890SOL     OW34110   1.097   1.398   5.629  0.5727  0.2856  0.0718
10890SOL    HW134111   1.109   1.340   5.705  2.0688 -2.0689 -1.8082
10890SOL    HW234112   1.179   1.391   5.580 -0.1568  2.1211 -1.5441
10891SOL     OW34113   2.945   4.424   8.862  0.0905 -0.4070 -0.2805
10891SOL    HW134114   2.944   4.503   8.809 -0.2978  1.0339  1.7728
10891SOL    HW234115   2.916   4.452   8.949 -0.4423 -2.8784  0.4302
10892SOL     OW34116   0.859   0.870   2.843  0.0807  0.2725  0.3631
10892SOL    HW134117   0.833   0.848   2.754  1.1809  1.2418 -0.2284
10892SOL    HW234118   0.889   0.787   2.880  0.3986  0.0084 -0.4606
10893SOL     OW34119   2.725   3.139   0.601  0.0549 -0.0942 -0.0689
10893SOL    HW134120   2.676   3.057   0.605 -0.0691 -0.0016  0.4167
10893SOL    HW234121   2.705   3.176   0.515  0.4807 -0.7987 -0.4887
10894SOL     OW34122   2.863   5.980   4.203  0.2755 -0.1039 -0.1217
10894SOL    HW134123   2.885   5.986   4.110 -0.4626  1.8286 -0.2057
10894SOL    HW234124   2.925   6.038   4.247  1.0770 -1.5379  0.7094
10895SOL     OW34125   4.443   7.442   8.183  0.4891 -0.0592 -0.4263
10895SOL    HW134126   4.500   7.416   8.255 -0.3114 -1.2086 -0.1719
10895SOL    HW234127   4.455   7.536   8.175  1.9137 -0.1781  0.0417
10896SOL     OW34128   5.340   2.436   6.259 -0.6874 -0.2439 -0.1710
10896SOL    HW134129   5.390   2.395   6.188  0.3406  0.8482 -0.1077
10896SOL    HW234130   5.385   2.407   6.339 -1.3455 -0.8052  0.0107
10897SOL     OW34131   0.282   2.640   0.207 -0.6070 -0.5543 -0.6369
10897SOL    HW134132   0.310   2.718   0.160 -3.6920  0.7187 -0.6186
10897SOL    HW234133   0.231   2.591   0.143  0.4854 -2.1193 -0.3624
10898SOL     OW34134   2.031   5.618   2.665 -0.7588 -0.0459 -0.3964
10898SOL    HW134135   2.103   5.677   2.644 -0.6533 -0.9349 -2.9873
10898SOL    HW234136   2.031   5.612   2.761  1.0992  1.7768 -0.2172
10899SOL     OW34137   4.184   3.785   1.043  0.2013  0.6164 -0.3886
10899SOL    HW134138   4.158   3.867   1.083 -1.0855  0.7938 -1.5086
10899SOL    HW234139   4.205   3.727   1.117  0.3224  1.6820  0.4262
10900SOL     OW34140   2.173   5.876   8.823 -0.3906  0.1588 -0.4325
10900SOL    HW134141   2.146   5.784   8.816  0.7737 -0.1031 -1.7748
10900SOL    HW234142   2.134   5.905   8.906 -1.1130 -1.4204 -0.1663
10901SOL     OW34143   6.567   1.970   2.462 -0.0180 -0.4743 -0.3842
10901SOL    HW134144   6.624   1.968   2.385  0.5983 -0.5293  0.0631
10901SOL    HW234145   6.517   2.051   2.453  0.8760  0.1041 -0.2633
10902SOL     OW34146   7.254   6.413  12.146  0.2976 -0.1545  0.2910
10902SOL    HW134147   7.199   6.364  12.207  1.1167  1.2441  2.2789
10902SOL    HW234148   7.334   6.431  12.196  0.6850  1.7434 -0.9118
10903SOL     OW34149   7.515   6.762   2.986  0.3586 -0.2358  0.1833
10903SOL    HW134150   7.513   6.777   2.892  1.2146 -2.4376 -0.2454
10903SOL    HW234151   7.497   6.848   3.024 -1.9854  0.3267 -1.9536
10904SOL     OW34152   7.748   1.604   7.529  0.2071 -0.3250  0.1227
10904SOL    HW134153   7.763   1.681   7.474  0.3923 -0.4409  0.0112
10904SOL    HW234154   7.670   1.626   7.580 -0.9646 -0.8792 -1.3633
10905SOL     OW34155   3.335   5.990   2.254 -0.5240 -0.0625  0.2203
10905SOL    HW134156   3.334   5.927   2.182 -1.8103 -1.0200  1.0312
10905SOL    HW234157   3.339   6.075   2.210 -2.5342 -0.5568 -1.0842
10906SOL     OW34158   5.042   4.293   6.857 -0.3636 -0.3822  0.3381
10906SOL    HW134159   5.058   4.209   6.813  0.0534 -0.8454  1.3327
10906SOL    HW234160   5.071   4.359   6.794 -0.4660 -0.9898 -0.3643
10907SOL     OW34161   3.711   0.811   4.334 -0.8871  0.4387  0.5560
10907SOL    HW134162   3.769   0.844   4.403  1.8305 -1.3403 -0.7181
10907SOL    HW234163   3.662   0.741   4.377  0.3090 -0.2229  0.8955
10908SOL     OW34164   7.792   1.090   7.485  0.1471  0.1657  0.5692
10908SOL    HW134165   7.818   1.181   7.478  0.7253 -0.0296  0.1521
10908SOL    HW234166   7.859   1.041   7.437 -0.1733 -0.4748  0.7557
10909SOL     OW34167   4.821   2.946   7.216 -0.2060  0.0342 -0.0354
10909SOL    HW134168   4.826   2.855   7.245 -0.6263 -0.0107 -0.0939
10909SOL    HW234169   4.870   2.996   7.282 -0.5488 -0.1545  0.3647
10910SOL     OW34170   4.468   1.820   0.944 -0.1047 -0.4677  0.4697
10910SOL    HW134171   4.418   1.752   0.990  1.2022 -1.5967  0.2631
10910SOL    HW234172   4.532   1.772   0.892  0.8994  0.9421  0.3661
10911SOL     OW34173   2.517   0.369  10.360  0.1570 -0.0343 -0.2677
10911SOL    HW134174   2.576   0.341  10.429 -0.7734 -1.4750 -0.0031
10911SOL    HW234175   2.493   0.459  10.383  2.5867  0.7870 -0.6723
10912SOL     OW34176   4.694   0.811   1.398  0.0120 -0.4737 -0.2544
10912SOL    HW134177   4.712   0.734   1.344 -2.2433 -0.8726 -0.5179
10912SOL    HW234178   4.692   0.884   1.337  3.6690  0.1868  0.1682
10913SOL     OW34179   6.268   1.182  10.716  0.0510 -0.1681 -0.1128
10913SOL    HW134180   6.178   1.213  10.705 -0.8464 -0.7914  3.9389
10913SOL    HW234181   6.322   1.256  10.688 -1.7023  0.6814 -1.4719
10914SOL     OW34182   7.777   0.192   9.415  0.1443 -0.2280 -0.0509
10914SOL    HW134183   7.865   0.200   9.379 -0.1672  0.6033 -0.6762
10914SOL    HW234184   7.790   0.181   9.509  0.9074  0.0366 -0.1225
10915SOL     OW34185   3.483   5.873   4.571  0.2565 -0.3276  0.0930
10915SOL    HW134186   3.572   5.893   4.541  0.3549 -0.2362  0.4470
10915SOL    HW234187   3.444   5.826   4.497  0.7598 -0.8048  0.1221
10916SOL     OW34188   5.231   5.400   5.879 -0.3719  0.3356  0.3669
10916SOL    HW134189   5.269   5.487   5.866  0.6815 -0.2346 -0.4667
10916SOL    HW234190   5.275   5.366   5.956  0.1944  0.0196 -0.0902
10917SOL     OW34191   3.684   6.910   4.233  0.0957 -0.4075  0.2720
10917SOL    HW134192   3.747   6.864   4.289  1.4923  0.3314 -0.6100
10917SOL    HW234193   3.699   7.003   4.252  1.0553 -0.1026 -1.7066
10918SOL     OW34194   2.626   3.167   6.277 -0.7480 -0.2766  0.4802
10918SOL    HW134195   2.575   3.223   6.219  1.5278  1.9228  0.4300
10918SOL    HW234196   2.595   3.190   6.365 -1.6653 -0.9653  0.3610
10919SOL     OW34197   6.131   7.653  11.473 -0.2103  0.1365 -0.5706
10919SOL    HW134198   6.121   7.677  11.381  1.6268 -1.5235 -1.2639
10919SOL    HW234199   6.118   7.558  11.475 -0.0922  0.1255  0.8666
10920SOL     OW34200   6.182   5.690   3.830  0.4427  0.0476  0.0385
10920SOL    HW134201   6.175   5.614   3.773  0.1855  1.3228 -1.7261
10920SOL    HW234202   6.276   5.699   3.847  0.4138 -1.0655  0.8944
10921SOL     OW34203   5.197   1.650   8.560 -0.2849  0.3924 -0.4309
10921SOL    HW134204   5.105   1.649   8.534  0.2165  0.5579 -2.4161
10921SOL    HW234205   5.225   1.559   8.553 -0.2250  0.3784 -0.0514
10922SOL     OW34206   6.734   1.816   4.096 -0.2995 -0.0174 -0.2761
10922SOL    HW134207   6.703   1.906   4.100  1.9106  0.7833  0.0430
10922SOL    HW234208   6.687   1.771   4.166 -0.6070  1.1626  0.2927
10923SOL     OW34209   7.595   0.037   2.449  0.0034  0.1574 -0.1012
10923SOL    HW134210   7.646   0.053   2.369  0.5703  1.8014  0.5463
10923SOL    HW234211   7.539  -0.038   2.427  0.7632  0.0263 -1.7435
10924SOL     OW34212   5.133   7.233   7.975  0.4293  0.6058  0.0298
10924SOL    HW134213   5.227   7.229   7.990  0.4562  1.3052  0.0937
10924SOL    HW234214   5.104   7.141   7.976  1.1858  0.3535 -0.5213
10925SOL     OW34215   5.463   5.720   2.047 -0.0554  0.1729 -0.2048
10925SOL    HW134216   5.372   5.744   2.031 -0.3062 -0.7444 -0.1802
10925SOL    HW234217   5.460   5.663   2.124  0.7027  1.2761  0.6904
10926SOL     OW34218   6.150   1.599   6.580 -0.2191 -0.8930 -0.6499
10926SOL    HW134219   6.116   1.557   6.659 -0.2202 -0.0359 -0.1843
10926SOL    HW234220   6.143   1.693   6.598 -0.7743 -0.6755 -1.9052
10927SOL     OW34221   3.854   0.880   5.105 -0.7792 -0.6368 -0.0657
10927SOL    HW134222   3.874   0.888   5.199  0.7222 -1.0150 -0.3148
10927SOL    HW234223   3.878   0.789   5.084  2.0535  0.3005 -1.4439
10928SOL     OW34224   0.901   6.761  11.645  0.4236 -0.3108  0.0824
10928SOL    HW134225   0.940   6.772  11.732  3.1122 -1.3184 -0.8792
10928SOL    HW234226   0.973   6.728  11.591 -1.0906  0.4972 -2.6065
10929SOL     OW34227   4.712   0.996   3.925 -0.2215 -0.2250  0.3533
10929SOL    HW134228   4.683   0.914   3.885 -1.5218  0.0780  0.6357
10929SOL    HW234229   4.806   0.999   3.907 -0.5281 -0.7190 -1.5787
10930SOL     OW34230   6.234   5.283   3.356 -0.0323  0.7393  0.0634
10930SOL    HW134231   6.185   5.295   3.438  1.2320  2.7730  0.6016
10930SOL    HW234232   6.244   5.372   3.322  0.6199  0.0424 -1.6364
10931SOL     OW34233   0.360   6.350   4.807 -0.1349  0.5119 -0.1686
10931SOL    HW134234   0.365   6.381   4.898  0.7970 -0.3709  0.1038
10931SOL    HW234235   0.450   6.355   4.775  0.3357 -2.8574  0.2619
10932SOL     OW34236   2.908   5.720  11.118  0.0631 -0.1603  0.1057
10932SOL    HW134237   2.947   5.732  11.032  1.2950 -0.1833  0.6302
10932SOL    HW234238   2.908   5.625  11.131 -1.0255 -0.2187 -0.2548
10933SOL     OW34239   6.409   4.174   5.145  0.1101  0.3751  0.1162
10933SOL    HW134240   6.420   4.259   5.187  0.1872 -0.3725  1.6810
10933SOL    HW234241   6.333   4.185   5.089 -0.5294  1.1900  1.0994
10934SOL     OW34242   5.769   7.677   0.271  0.1295  0.1686 -0.7136
10934SOL    HW134243   5.841   7.700   0.213  0.4609 -0.0718 -0.4050
10934SOL    HW234244   5.711   7.623   0.218 -0.2383  1.0267 -1.2024
10935SOL     OW34245   5.531   0.688   9.211  0.2769 -0.0134  0.4108
10935SOL    HW134246   5.577   0.606   9.195  1.5340  0.2763  2.1591
10935SOL    HW234247   5.601   0.754   9.211 -0.4304  0.7540  1.0108
10936SOL     OW34248   2.383   7.528   4.203  0.4877 -0.0394 -0.5964
10936SOL    HW134249   2.474   7.506   4.181  0.2612 -0.3390 -1.2698
10936SOL    HW234250   2.338   7.444   4.207  0.3747  0.0541  0.4240
10937SOL     OW34251   6.655   5.013   4.220  0.4785 -0.2855  0.2578
10937SOL    HW134252   6.690   4.927   4.242 -0.6115 -0.9732 -0.5522
10937SOL    HW234253   6.600   4.997   4.143 -2.4123  0.5053  2.0051
10938SOL     OW34254   0.616   7.692   1.953  0.5609  0.0326 -0.9951
10938SOL    HW134255   0.699   7.736   1.971 -0.4559  2.4261 -1.7212
10938SOL    HW234256   0.622   7.609   2.001  2.5058  1.0638  0.7217
10939SOL     OW34257   6.511   5.649   3.935 -0.4375 -0.4835  0.5227
10939SOL    HW134258   6.603   5.654   3.960 -0.4882 -0.6719  0.7511
10939SOL    HW234259   6.464   5.661   4.018 -0.6902  2.6928  0.0526
10940SOL     OW34260   4.097   3.778  11.959  0.3058 -0.7202 -0.2808
10940SOL    HW134261   4.091   3.814  12.047 -0.3660 -1.1030 -0.1585
10940SOL    HW234262   4.040   3.701  11.961 -0.5166 -0.1743 -1.3102
10941SOL     OW34263   6.940   1.115   4.141 -0.6155  0.6836  0.1154
10941SOL    HW134264   7.013   1.094   4.199 -1.5214  0.9163  1.3790
10941SOL    HW234265   6.978   1.114   4.053  0.3929 -1.5050  0.5295
10942SOL     OW34266   6.455   5.945   9.560  0.1426  0.2710  0.2935
10942SOL    HW134267   6.464   6.037   9.537  0.2261  0.0295 -0.6555
10942SOL    HW234268   6.545   5.913   9.569  0.1196  0.1787  0.1969
10943SOL     OW34269   2.319   3.510  10.128 -0.3028  0.1252 -0.1930
10943SOL    HW134270   2.324   3.429  10.077 -1.0159 -0.3576  0.4919
10943SOL    HW234271   2.336   3.483  10.218 -1.4368  0.5930  0.1696
10944SOL     OW34272   5.972   2.414  11.386 -0.4446  0.2794  0.0897
10944SOL    HW134273   5.933   2.493  11.425  0.1512  0.2162  0.8230
10944SOL    HW234274   5.946   2.418  11.294 -1.1663  0.8694  0.3049
10945SOL     OW34275   0.844   4.878   8.047 -0.2657 -0.5043 -0.1129
10945SOL    HW134276   0.907   4.830   8.101 -1.2090 -1.2710  0.3422
10945SOL    HW234277   0.851   4.839   7.961  2.9533  2.2688 -1.3326
10946SOL     OW34278   7.551   2.028  11.292 -0.3235  0.1015  0.5740
10946SOL    HW134279   7.491   2.092  11.329  0.7502  1.7197 -0.3671
10946SOL    HW234280   7.583   2.068  11.211  0.6848 -1.4579  0.1458
10947SOL     OW34281   6.636   4.292  11.271 -0.3843  0.0117 -0.0118
10947SOL    HW134282   6.675   4.379  11.261  1.4909 -0.5002  1.9734
10947SOL    HW234283   6.711   4.232  11.274 -1.5389 -1.4795  0.2708
10948SOL     OW34284   3.668   1.449   6.948  0.3924 -0.3036 -0.3799
10948SOL    HW134285   3.737   1.433   7.013  0.3353 -1.6321 -0.6350
10948SOL    HW234286   3.587   1.426   6.993  0.0022  1.7718  0.1074
10949SOL     OW34287   1.389   2.179   0.057  0.0683 -0.1529 -0.4724
10949SOL    HW134288   1.483   2.179   0.040  0.4592  0.0854  1.4872
10949SOL    HW234289   1.369   2.267   0.088 -1.4942  0.8992 -3.9594
10950SOL     OW34290   5.953   2.843   4.017  0.4647 -0.2637 -0.1181
10950SOL    HW134291   5.892   2.909   3.984  0.9037 -0.1167 -0.6530
10950SOL    HW234292   5.903   2.794   4.082 -0.5887 -0.9131 -1.3829
10951SOL     OW34293   7.714   2.822   2.365  0.1796 -0.2640 -0.2347
10951SOL    HW134294   7.759   2.807   2.282 -0.7601 -0.0942 -0.7988
10951SOL    HW234295   7.621   2.812   2.344 -0.2648  2.2648  0.2286
10952SOL     OW34296   1.026   2.344   1.587 -0.4609 -0.5975 -0.3641
10952SOL    HW134297   1.070   2.428   1.572 -0.4237 -0.7779 -1.3276
10952SOL    HW234298   0.935   2.368   1.607 -0.1017 -0.2590  0.9294
10953SOL     OW34299   2.290   7.646   6.126  0.3255 -0.3147  0.2757
10953SOL    HW134300   2.306   7.605   6.041 -1.7623  0.5625 -0.6090
10953SOL    HW234301   2.217   7.705   6.111  1.4898  1.7429  2.1358
10954SOL     OW34302   5.321   6.090   2.281 -0.1748  0.2271 -0.6842
10954SOL    HW134303   5.311   6.026   2.351 -3.0068  2.0594  0.7766
10954SOL    HW234304   5.415   6.111   2.281  0.2417 -1.4016  1.0831
10955SOL     OW34305   3.076   6.667   5.281 -0.2255 -0.6103 -0.6878
10955SOL    HW134306   3.117   6.724   5.347  0.5232 -0.6326 -1.1262
10955SOL    HW234307   3.149   6.635   5.228 -0.7137 -1.4257 -0.8841
10956SOL     OW34308   1.941   4.864  10.505  0.0871 -0.4805  0.1569
10956SOL    HW134309   1.926   4.917  10.427  0.7869 -0.2645  0.1639
10956SOL    HW234310   2.031   4.883  10.531 -0.3044 -0.1333  1.3420
10957SOL     OW34311   7.384   5.392   5.657 -0.7345  0.0299  0.7550
10957SOL    HW134312   7.367   5.484   5.675  1.3350  0.3934  1.1648
10957SOL    HW234313   7.381   5.385   5.561 -1.8601  0.2962  0.7653
10958SOL     OW34314   0.723   4.216   3.138  0.2260 -0.1883  0.5045
10958SOL    HW134315   0.741   4.152   3.207 -1.1075 -2.0398 -0.7371
10958SOL    HW234316   0.656   4.273   3.175  1.3396  0.4467  1.5946
10959SOL     OW34317   1.769   0.863   4.453 -1.0400 -0.5512 -0.0959
10959SOL    HW134318   1.673   0.864   4.447 -0.9860  0.1835 -1.0135
10959SOL    HW234319   1.798   0.842   4.365 -0.3530 -1.3020  0.2996
10960SOL     OW34320   6.649   1.400   3.938 -0.7839 -0.3554 -0.0663
10960SOL    HW134321   6.632   1.312   3.905 -0.8876  0.1094 -1.3121
10960SOL    HW234322   6.636   1.457   3.862 -1.5088  0.8191  0.9082
10961SOL     OW34323   7.235   6.622   3.117 -0.0465  0.1624  0.0982
10961SOL    HW134324   7.261   6.628   3.025 -0.8838  1.2404 -0.0792
10961SOL    HW234325   7.306   6.664   3.165  1.6913 -2.6663  0.2348
10962SOL     OW34326   3.968   5.423  12.219  0.1695  0.3134 -0.1239
10962SOL    HW134327   3.875   5.399  12.224  0.4245 -0.7649 -0.4234
10962SOL    HW234328   3.985   5.432  12.125  0.6550 -0.6971 -0.1473
10963SOL     OW34329   2.988   6.592   3.223  0.7303 -0.1752  0.4663
10963SOL    HW134330   2.984   6.606   3.318  3.0377 -1.1170  0.7698
10963SOL    HW234331   2.977   6.497   3.213 -0.4550  0.0310 -0.3178
10964SOL     OW34332   1.154   2.929  10.317 -0.0460 -0.2312 -0.1390
10964SOL    HW134333   1.183   2.869  10.386 -0.9015 -1.7393 -1.0270
10964SOL    HW234334   1.231   2.982  10.298  0.0165  0.7954  2.4647
10965SOL     OW34335   7.794   2.677   2.072  0.5037  0.0272  0.3709
10965SOL    HW134336   7.798   2.673   1.977  0.7749  1.7725  0.2665
10965SOL    HW234337   7.704   2.651   2.093  0.8017 -1.5795 -0.2454
10966SOL     OW34338   4.806   7.771   0.585  0.0954  0.1485 -0.0278
10966SOL    HW134339   4.866   7.776   0.660 -0.0941  0.2633  0.1191
10966SOL    HW234340   4.798   7.678   0.566 -1.5852 -0.1015  1.5221
10967SOL     OW34341   5.400   3.646   3.444 -0.2124 -0.3736  0.0673
10967SOL    HW134342   5.308   3.653   3.467 -0.3205 -1.3844  0.0067
10967SOL    HW234343   5.446   3.689   3.515 -0.8068  2.7837 -1.2970
10968SOL     OW34344   3.775   1.047   9.033  0.8617 -0.3354  0.2665
10968SOL    HW134345   3.695   1.045   9.086  2.3303 -1.4655  2.6161
10968SOL    HW234346   3.846   1.053   9.097  2.7039  0.2516 -1.7189
10969SOL     OW34347   3.051   0.055   5.713 -0.5249 -0.0342  0.8091
10969SOL    HW134348   3.122  -0.008   5.698 -1.9494 -1.7496  0.9299
10969SOL    HW234349   3.079   0.134   5.667  0.1623 -1.5843 -1.6160
10970SOL     OW34350   2.211   6.810   4.195 -0.3538  0.4995 -0.2021
10970SOL    HW134351   2.305   6.827   4.196  0.1162 -1.5429 -1.7417
10970SOL    HW234352   2.171   6.893   4.168  0.9914  1.3915  0.4854
10971SOL     OW34353   4.102   5.877   8.156  0.0775  0.1508 -0.0084
10971SOL    HW134354   4.144   5.862   8.071  0.4672 -0.6712  0.3141
10971SOL    HW234355   4.022   5.825   8.153 -0.5414  1.0867 -0.3179
10972SOL     OW34356   3.529   4.992  12.127  0.1100  0.3587 -0.1343
10972SOL    HW134357   3.498   4.924  12.067 -2.7675  1.0767  0.3870
10972SOL    HW234358   3.573   4.944  12.196 -0.2540 -0.8450 -0.6977
10973SOL     OW34359   7.918   4.520  11.580  0.6060  0.3115  0.4608
10973SOL    HW134360   7.996   4.564  11.613 -0.1244  0.8990  1.4483
10973SOL    HW234361   7.865   4.504  11.658  0.0353 -0.6857 -0.1172
10974SOL     OW34362   0.914   2.386  11.498  0.3988  0.1460  0.4581
10974SOL    HW134363   0.819   2.392  11.501  0.3986  0.4865 -0.1332
10974SOL    HW234364   0.933   2.295  11.522 -0.1534 -0.2936 -0.6921
10975SOL     OW34365   0.472   0.424   3.888  0.1166  0.2035  0.7678
10975SOL    HW134366   0.548   0.419   3.946  0.8586  0.2210 -0.1871
10975SOL    HW234367   0.470   0.340   3.843  1.1022  1.0905 -1.0542
10976SOL     OW34368   4.483   4.203  11.390 -0.4946 -0.4558  0.2443
10976SOL    HW134369   4.567   4.171  11.423 -0.8149 -0.8910  0.6449
10976SOL    HW234370   4.494   4.207  11.295 -0.1351 -0.8455  0.2664
10977SOL     OW34371   4.088   2.153   4.964  0.1782  0.2689  0.2114
10977SOL    HW134372   4.151   2.117   5.026  1.1666  1.7107  0.0959
10977SOL    HW234373   4.009   2.168   5.017  0.7010  0.5952  0.9149
10978SOL     OW34374   7.231   3.831   5.900  0.9274  0.4470 -0.4780
10978SOL    HW134375   7.322   3.851   5.877  0.8594  1.7607  0.3247
10978SOL    HW234376   7.186   3.915   5.895  0.1411  0.1319  0.9175
10979SOL     OW34377   1.227   3.029   0.123  0.3352 -0.1472 -0.6102
10979SOL    HW134378   1.293   3.042   0.191 -0.0702  0.5308 -0.3294
10979SOL    HW234379   1.253   3.086   0.052 -0.6399  1.1542  0.0285
10980SOL     OW34380   2.427   7.682   8.996 -0.0909  0.0985  0.1713
10980SOL    HW134381   2.511   7.637   9.003 -0.0252  0.2215  0.1671
10980SOL    HW234382   2.398   7.664   8.906 -0.2223 -0.2141  0.2744
10981SOL     OW34383   1.540   4.562   7.151 -0.5101 -0.5023 -0.4422
10981SOL    HW134384   1.545   4.528   7.061 -1.4301 -1.3602 -0.1886
10981SOL    HW234385   1.451   4.597   7.158  0.3695  1.9543 -0.6617
10982SOL     OW34386   6.811   6.488   8.455 -0.1005 -0.3536  0.3220
10982SOL    HW134387   6.762   6.504   8.374 -0.2864  0.4613  0.5893
10982SOL    HW234388   6.901   6.475   8.427 -0.4275 -1.8262 -0.1751
10983SOL     OW34389   3.334   1.774   4.974  0.1795 -0.4046 -0.8988
10983SOL    HW134390   3.388   1.698   4.951 -0.7421 -1.6857  0.9445
10983SOL    HW234391   3.353   1.789   5.067 -1.8979 -0.3031 -0.4627
10984SOL     OW34392   3.070   1.810   5.024 -0.2428 -0.0919  0.1402
10984SOL    HW134393   3.161   1.791   5.001 -0.3720 -0.6131  0.0477
10984SOL    HW234394   3.049   1.747   5.093 -0.3087  0.5124  0.6807
10985SOL     OW34395   2.218   7.926   9.013  0.0138  0.1995  0.7997
10985SOL    HW134396   2.296   7.977   8.990 -1.0417  1.8652  0.7746
10985SOL    HW234397   2.213   7.931   9.108 -0.5752  0.8928  0.7355
10986SOL     OW34398   1.414   5.302   9.273 -0.2337 -0.1444 -0.2419
10986SOL    HW134399   1.491   5.259   9.237  1.1642  3.0258 -1.4194
10986SOL    HW234400   1.431   5.307   9.367  1.2090  0.7426 -0.5138
10987SOL     OW34401   1.785   6.433   7.758  0.2926 -0.0696  0.3806
10987SOL    HW134402   1.844   6.500   7.794 -0.1094  0.2560  0.4489
10987SOL    HW234403   1.718   6.484   7.711 -0.6096 -0.3531  1.2982
10988SOL     OW34404   0.999   5.798   9.195  0.0415  0.0982  0.0222
10988SOL    HW134405   1.009   5.717   9.246  0.3480 -1.0776 -1.8079
10988SOL    HW234406   0.904   5.812   9.192 -0.0469 -0.4806 -0.0594
10989SOL     OW34407   1.513   5.782  11.348  0.4362  0.1340 -0.4870
10989SOL    HW134408   1.602   5.787  11.384  1.1063 -0.1383 -2.0452
10989SOL    HW234409   1.461   5.745  11.419  1.8485 -1.0135  0.0019
10990SOL     OW34410   7.244   6.974   9.843  0.3756 -0.0886  0.1622
10990SOL    HW134411   7.153   6.951   9.825  0.3896 -1.7762  1.9086
10990SOL    HW234412   7.275   7.015   9.762 -1.6007 -0.4966 -0.8596
10991SOL     OW34413   2.908   3.176   7.184 -0.1849  0.3220  0.5171
10991SOL    HW134414   2.968   3.242   7.148  1.6739 -2.7658 -2.6155
10991SOL    HW234415   2.826   3.189   7.137  0.7038 -0.5695 -1.3543
10992SOL     OW34416   1.875   1.086   6.810  0.1759  0.1587  0.3919
10992SOL    HW134417   1.901   1.068   6.900  0.1575  0.4106  0.4472
10992SOL    HW234418   1.887   1.002   6.765  1.2958  0.3279  0.3624
10993SOL     OW34419   2.770   5.049   9.815  0.1782  0.1233 -0.1416
10993SOL    HW134420   2.682   5.037   9.852  0.3528  1.3063  0.7314
10993SOL    HW234421   2.816   5.102   9.880  1.1416  0.5973 -1.1793
10994SOL     OW34422   2.813   4.929   0.345  0.0573  0.3066 -0.5339
10994SOL    HW134423   2.775   4.858   0.397  0.4095  0.5326  0.0311
10994SOL    HW234424   2.744   4.995   0.342 -0.5042 -0.3020 -1.5772
10995SOL     OW34425   5.939   7.079   8.302  0.5348  1.0931  0.1124
10995SOL    HW134426   5.985   7.161   8.282  0.3212  1.6139  1.5862
10995SOL    HW234427   5.984   7.045   8.380  1.3542 -0.8187 -1.1237
10996SOL     OW34428   6.409   6.694   4.632 -0.6351  0.4123  0.2569
10996SOL    HW134429   6.386   6.634   4.703 -0.8091 -0.4431 -0.5184
10996SOL    HW234430   6.336   6.757   4.630 -2.0060 -1.1187 -0.8838
10997SOL     OW34431   0.349   7.510   6.530 -0.0423 -0.7376  0.0316
10997SOL    HW134432   0.430   7.512   6.478 -1.5854  0.6290 -2.5522
10997SOL    HW234433   0.356   7.587   6.587  0.5184 -0.7032 -0.0744
10998SOL     OW34434   0.487   2.508   5.053  0.5273 -0.0687  0.3438
10998SOL    HW134435   0.583   2.505   5.048  0.5207  0.7855 -0.7599
10998SOL    HW234436   0.458   2.446   4.986  0.3076  0.2655  0.1314
10999SOL     OW34437   2.436   2.685  11.296  0.1377 -0.2517 -0.1681
10999SOL    HW134438   2.349   2.658  11.264  0.0589  1.4074 -1.4542
10999SOL    HW234439   2.427   2.778  11.313  1.7365 -0.0062 -0.5539
11000SOL     OW34440   3.780   6.360   4.032 -0.5682  0.2145  0.3796
11000SOL    HW134441   3.834   6.436   4.053 -1.1625  0.4332  1.1425
11000SOL    HW234442   3.799   6.297   4.102 -1.6523  0.4810  0.9333
11001SOL     OW34443   6.264   6.137  10.203 -0.5381 -0.2665 -0.1870
11001SOL    HW134444   6.241   6.098  10.288 -5.8588  0.9305 -0.7562
11001SOL    HW234445   6.232   6.227  10.208  1.1152  0.5749 -2.7750
11002SOL     OW34446   6.182   6.737  12.306 -0.5239  0.3314  0.0555
11002SOL    HW134447   6.210   6.715  12.217 -1.0910 -0.1890  0.0023
11002SOL    HW234448   6.161   6.831  12.302  2.4618  1.1004  0.4264
11003SOL     OW34449   2.923   2.823  10.940  0.2215  0.1925  0.0237
11003SOL    HW134450   2.977   2.896  10.972 -1.4023  1.5053 -0.0663
11003SOL    HW234451   2.877   2.792  11.018  0.7843 -0.6423  0.0281
11004SOL     OW34452   5.613   7.919   1.926  0.4553  0.5543 -0.4774
11004SOL    HW134453   5.692   7.952   1.970 -1.5755  4.4892  0.6850
11004SOL    HW234454   5.617   7.957   1.838  0.0169  0.5928 -0.4835
11005SOL     OW34455   2.545   4.252   4.855 -0.3071  0.1770 -0.1460
11005SOL    HW134456   2.570   4.212   4.938 -2.4647  1.6913  1.3469
11005SOL    HW234457   2.492   4.187   4.811 -1.8454  0.4633  1.1919
11006SOL     OW34458   5.035   0.443   7.852  0.0271  0.2030 -0.2892
11006SOL    HW134459   4.975   0.452   7.927  0.5447  1.0890  0.0331
11006SOL    HW234460   5.021   0.354   7.821 -2.6445  0.8488 -1.2455
11007SOL     OW34461   0.386   1.102   7.133 -0.2679 -0.3428  0.5983
11007SOL    HW134462   0.333   1.151   7.070  0.2487  0.3274  0.6679
11007SOL    HW234463   0.330   1.093   7.210 -0.4058  0.0740  0.5525
11008SOL     OW34464   4.043   2.538   5.527  0.3121  0.2497 -0.0812
11008SOL    HW134465   3.979   2.608   5.524  1.0800  0.9806  0.2353
11008SOL    HW234466   4.045   2.503   5.438  1.4755  2.0853 -0.8373
11009SOL     OW34467   5.294   5.561   4.142 -0.0267 -0.3784 -0.6619
11009SOL    HW134468   5.328   5.510   4.216  1.2864  1.4904  0.1036
11009SOL    HW234469   5.365   5.622   4.120 -2.0052  2.1239 -0.5720
11010SOL     OW34470   2.440   3.725   2.951 -0.0745 -0.2741  0.4190
11010SOL    HW134471   2.364   3.679   2.987 -2.0125  0.9510 -1.8420
11010SOL    HW234472   2.478   3.664   2.888 -0.8744  0.1291 -0.4594
11011SOL     OW34473   0.814   6.495  10.424 -0.4371 -0.1142 -0.3533
11011SOL    HW134474   0.790   6.510  10.515  0.6893  0.0053 -0.0496
11011SOL    HW234475   0.908   6.476  10.427 -0.3556 -0.0081 -1.4970
11012SOL     OW34476   1.608   2.145   3.291 -0.0250 -0.2385  0.1004
11012SOL    HW134477   1.550   2.219   3.273  0.7100  0.4752  0.5593
11012SOL    HW234478   1.689   2.167   3.245 -0.3427 -1.5653 -1.1370
11013SOL     OW34479   1.583   1.440   7.164  0.2862 -0.2977 -0.0159
11013SOL    HW134480   1.522   1.379   7.121  1.4688 -0.6538 -1.2699
11013SOL    HW234481   1.601   1.506   7.098  0.4563  0.4005  0.7121
11014SOL     OW34482   4.608   3.200   6.360 -0.1887 -0.3466  0.0379
11014SOL    HW134483   4.632   3.245   6.279  0.7170 -2.9542 -1.2602
11014SOL    HW234484   4.670   3.128   6.367 -1.6262 -1.5158  1.8936
11015SOL     OW34485   1.087   6.422   0.488 -0.0776 -0.0162  0.1116
11015SOL    HW134486   1.126   6.505   0.462  1.4016 -1.0377 -1.0880
11015SOL    HW234487   1.156   6.377   0.537 -1.1255 -0.2289  1.4531
11016SOL     OW34488   4.929   2.970  10.597 -0.8744  0.0375 -0.0796
11016SOL    HW134489   4.864   2.923  10.544 -1.0072  0.9071 -0.7084
11016SOL    HW234490   4.898   3.061  10.599 -0.7117  0.0837  1.2604
11017SOL     OW34491   5.089   5.771   1.832  0.0061  0.0453 -0.2901
11017SOL    HW134492   5.122   5.721   1.757 -0.3353  0.8749 -1.0112
11017SOL    HW234493   5.161   5.830   1.855  0.8486 -1.5054  1.2891
11018SOL     OW34494   4.776   4.359  11.310 -0.1093  0.4701 -0.3249
11018SOL    HW134495   4.766   4.264  11.309  2.1112  0.1567  0.9165
11018SOL    HW234496   4.701   4.392  11.260 -1.3288 -1.8763 -0.1710
11019SOL     OW34497   2.111   7.746  10.187  0.3515 -0.5798 -0.0669
11019SOL    HW134498   2.108   7.650  10.186  1.2124 -0.6896  1.9117
11019SOL    HW234499   2.202   7.767  10.167 -0.0707 -0.0897 -1.6003
11020SOL     OW34500   7.370   6.325   1.970  0.3053  0.5693  0.1957
11020SOL    HW134501   7.339   6.388   2.036  0.4623 -0.2649  1.0834
11020SOL    HW234502   7.445   6.369   1.929  1.3606  0.4015  1.8364
11021SOL     OW34503   1.961   7.564  11.425  0.0006  0.0032 -0.6959
11021SOL    HW134504   1.869   7.538  11.433  0.2297 -0.6557 -0.0372
11021SOL    HW234505   2.000   7.542  11.510  0.9091 -0.3445 -1.1800
11022SOL     OW34506   2.793   7.569   3.937 -0.5171 -0.5484  0.2366
11022SOL    HW134507   2.769   7.658   3.966 -0.8332 -0.6830  0.3936
11022SOL    HW234508   2.856   7.583   3.866  0.1642 -0.2088  0.8972
11023SOL     OW34509   2.078   6.863   5.051  0.9273 -0.4214  0.2678
11023SOL    HW134510   2.098   6.917   5.127 -0.6840  0.9315 -0.2018
11023SOL    HW234511   2.122   6.906   4.978 -0.0227  0.0777 -0.0371
11024SOL     OW34512   6.391   6.551   8.599  0.2554 -0.3093 -0.1555
11024SOL    HW134513   6.356   6.626   8.551  3.2396  0.2385 -1.6822
11024SOL    HW234514   6.430   6.495   8.532  1.4936 -1.2770  1.3065
11025SOL     OW34515   2.984   0.993   3.540  0.3044 -0.3151 -0.8253
11025SOL    HW134516   3.051   1.056   3.565 -0.8953  0.8638 -0.4582
11025SOL    HW234517   2.903   1.029   3.576 -0.4009 -2.1453 -0.5147
11026SOL     OW34518   5.344   1.326   0.099  0.2776  0.4855  0.1614
11026SOL    HW134519   5.392   1.396   0.143 -1.7941  1.8820  0.3051
11026SOL    HW234520   5.357   1.342   0.006  1.5657 -0.2575  0.1860
11027SOL     OW34521   7.909   4.231   2.084 -0.2266 -0.1907  0.1871
11027SOL    HW134522   8.001   4.208   2.100 -0.2950  0.9057  2.5974
11027SOL    HW234523   7.906   4.254   1.991  2.2508  0.9177  0.2887
11028SOL     OW34524   0.924   4.342  10.361 -0.3341  0.5650 -0.3245
11028SOL    HW134525   0.831   4.363  10.372 -0.2693  1.3864 -1.2201
11028SOL    HW234526   0.961   4.355  10.448 -1.1998 -0.6632  0.2709
11029SOL     OW34527   0.876   0.391  10.601  0.1669  0.3915 -0.6166
11029SOL    HW134528   0.822   0.451  10.654  0.1872  1.1737 -1.4474
11029SOL    HW234529   0.905   0.324  10.662 -2.6594 -0.7046 -0.3187
11030SOL     OW34530   3.317   6.559   6.682  0.1099 -0.2592 -0.0325
11030SOL    HW134531   3.351   6.648   6.672  1.1239 -0.4913  1.1755
11030SOL    HW234532   3.254   6.550   6.610  1.4615  0.7222 -1.4239
11031SOL     OW34533   5.642   1.286   2.263 -0.6544 -0.3941  0.3562
11031SOL    HW134534   5.659   1.343   2.338  0.2742 -0.8179  0.4809
11031SOL    HW234535   5.585   1.337   2.206 -0.4545  0.3647  0.8231
11032SOL     OW34536   0.057   5.364   3.668  0.3072 -0.2489  0.1203
11032SOL    HW134537  -0.015   5.377   3.605  1.6436  0.2619 -1.3809
11032SOL    HW234538   0.080   5.452   3.697  0.8196 -0.3356 -0.0079
11033SOL     OW34539   6.990   5.115   4.085 -0.0495  0.2162 -0.3165
11033SOL    HW134540   7.041   5.169   4.025  1.7415 -0.8553  0.1583
11033SOL    HW234541   6.942   5.054   4.029 -0.7820  1.1878 -0.7702
11034SOL     OW34542   7.251   1.759   9.635 -0.2557 -0.3262  0.9621
11034SOL    HW134543   7.334   1.712   9.638 -1.5645 -2.9859 -0.8895
11034SOL    HW234544   7.186   1.693   9.611 -2.2325  2.4155 -2.0355
11035SOL     OW34545   0.632   6.690   8.910 -0.1174  0.6364 -0.3211
11035SOL    HW134546   0.692   6.615   8.900  0.3329  0.9734 -0.1818
11035SOL    HW234547   0.546   6.654   8.889  0.2354  0.3356 -1.3566
11036SOL     OW34548   2.301   3.120   7.168 -0.7106 -0.5948 -0.3151
11036SOL    HW134549   2.362   3.065   7.217  0.2430  0.5331 -0.1797
11036SOL    HW234550   2.215   3.080   7.182 -0.0331 -2.1081 -0.3489
11037SOL     OW34551   0.308   6.117   6.893 -0.0252  0.2757  0.1698
11037SOL    HW134552   0.282   6.109   6.801 -1.1365  0.3484  0.4645
11037SOL    HW234553   0.393   6.072   6.898 -0.0545  0.0853 -0.8438
11038SOL     OW34554   1.770   2.963   4.902 -0.3784  0.0776 -0.0673
11038SOL    HW134555   1.715   3.037   4.926 -0.7889 -0.2410 -0.0122
11038SOL    HW234556   1.768   2.905   4.978  1.1981  0.7213  0.5071
11039SOL     OW34557   3.971   3.805   5.405  0.2550 -0.2696 -0.4448
11039SOL    HW134558   4.064   3.789   5.420  0.7774  1.8058 -1.0590
11039SOL    HW234559   3.942   3.734   5.349  0.7922 -2.3841  1.8043
11040SOL     OW34560   2.827   6.247   3.822  0.0521  0.1822  0.2673
11040SOL    HW134561   2.809   6.188   3.896  0.0059  0.5269  0.5336
11040SOL    HW234562   2.797   6.199   3.745 -0.5735  0.1147  0.5465
11041SOL     OW34563   4.190   5.142   4.895  0.1864  0.2777 -0.2235
11041SOL    HW134564   4.152   5.055   4.907 -0.5850  0.7806  1.1956
11041SOL    HW234565   4.122   5.192   4.851 -0.0054  0.5869  0.4047
11042SOL     OW34566   1.161   7.753   9.130 -0.0962  0.4655  0.2765
11042SOL    HW134567   1.214   7.727   9.205 -0.0646  0.8386  0.3833
11042SOL    HW234568   1.224   7.778   9.063 -0.1340  1.9702  0.7745
11043SOL     OW34569   6.229   3.601   4.507  0.3443 -0.4298 -0.2617
11043SOL    HW134570   6.311   3.553   4.499 -0.0150 -1.0820 -0.0880
11043SOL    HW234571   6.228   3.632   4.598 -0.0849 -1.3154  0.0393
11044SOL     OW34572   6.544   6.380   1.829 -0.5072 -0.6149  0.5619
11044SOL    HW134573   6.581   6.292   1.840 -0.1786 -0.6681 -0.8084
11044SOL    HW234574   6.616   6.432   1.794 -0.4392  0.4642  2.1838
11045SOL     OW34575   7.438   4.484   3.029  0.3662  0.1049  0.2164
11045SOL    HW134576   7.454   4.570   3.069 -0.9737  0.9566 -1.0030
11045SOL    HW234577   7.370   4.500   2.963 -0.6933 -2.0807  0.6783
11046SOL     OW34578   7.675   4.453  11.099  0.0197  0.3356 -0.3402
11046SOL    HW134579   7.599   4.396  11.089 -1.0014  1.2389  1.6418
11046SOL    HW234580   7.637   4.540  11.114  1.4734  0.9457 -0.0614
11047SOL     OW34581   5.799   5.610   1.357 -0.2970 -0.2133 -0.1949
11047SOL    HW134582   5.825   5.652   1.439 -1.7885  2.0093 -0.7814
11047SOL    HW234583   5.796   5.681   1.293 -2.9497 -1.1404 -1.2446
11048SOL     OW34584   2.150   4.557   6.276 -0.3195 -0.0592 -0.3779
11048SOL    HW134585   2.213   4.520   6.214  0.6329 -0.1014  0.5955
11048SOL    HW234586   2.080   4.491   6.279 -0.2813 -0.1584 -1.2319
11049SOL     OW34587   3.231   6.559   1.105 -0.4539  0.5086 -0.6111
11049SOL    HW134588   3.268   6.492   1.047  4.0510  0.8282  1.4763
11049SOL    HW234589   3.261   6.642   1.068  0.1508  0.8684  0.6394
11050SOL     OW34590   0.531   6.311   3.343 -0.4019 -0.2636  0.3945
11050SOL    HW134591   0.528   6.404   3.318 -0.9450 -0.4726 -0.3222
11050SOL    HW234592   0.589   6.271   3.279 -0.1583 -0.4230  0.7125
11051SOL     OW34593   4.626   0.666   6.524  0.0263 -0.4888 -0.2849
11051SOL    HW134594   4.589   0.737   6.575  1.0698 -0.4203  0.3879
11051SOL    HW234595   4.598   0.586   6.570 -0.1107 -0.4747 -0.3429
11052SOL     OW34596   4.500   7.700   8.198 -0.2857 -0.0716  0.1411
11052SOL    HW134597   4.463   7.697   8.110 -1.9962  0.5500  0.7989
11052SOL    HW234598   4.584   7.746   8.187 -0.9849  0.9988 -0.9937
11053SOL     OW34599   5.187   7.834  10.045 -0.1961  0.2660  0.0997
11053SOL    HW134600   5.240   7.821  10.123  0.9217  1.4066 -0.4368
11053SOL    HW234601   5.115   7.771  10.054  0.5131 -0.3845  1.4882
11054SOL     OW34602   5.576   6.033  11.426  0.2831 -0.4652 -0.2810
11054SOL    HW134603   5.540   6.106  11.476  0.0164 -0.8392  0.0774
11054SOL    HW234604   5.527   5.956  11.455  0.9369 -0.8841 -0.2433
11055SOL     OW34605   6.806   6.669  10.351  0.1193  0.5016  0.1375
11055SOL    HW134606   6.771   6.755  10.329 -0.8249 -0.0961 -0.8238
11055SOL    HW234607   6.893   6.667  10.311  0.0367  0.9151 -0.0665
11056SOL     OW34608   0.682   4.275   7.255  0.2170  0.3388 -0.5548
11056SOL    HW134609   0.697   4.369   7.253 -1.6235  0.6536 -1.0077
11056SOL    HW234610   0.706   4.249   7.344  1.4391  1.0856 -0.6488
11057SOL     OW34611   3.005   1.971   8.569  0.4018 -0.2045 -0.8135
11057SOL    HW134612   2.933   2.021   8.607  1.1768 -0.0746  0.5403
11057SOL    HW234613   3.038   1.918   8.641  1.1082 -0.9150 -1.6383
11058SOL     OW34614   2.479   4.800   7.259 -0.1282 -0.0213 -0.0260
11058SOL    HW134615   2.552   4.760   7.307  1.0812  2.4761  0.3575
11058SOL    HW234616   2.493   4.772   7.168  0.3534 -0.8642  0.2859
11059SOL     OW34617   1.354   5.991   3.140  0.1931 -0.0643 -0.2417
11059SOL    HW134618   1.338   6.085   3.152  1.6412  0.0376  1.3457
11059SOL    HW234619   1.398   5.985   3.055  1.6119  0.9335  0.3831
11060SOL     OW34620   2.204   1.589   0.913  0.1164 -0.0216 -0.1527
11060SOL    HW134621   2.170   1.598   0.824 -2.1818 -0.3516  0.6280
11060SOL    HW234622   2.256   1.668   0.926  0.4822  0.0497 -1.7571
11061SOL     OW34623   6.599   0.126   2.440 -0.3113  0.5441  0.2747
11061SOL    HW134624   6.673   0.080   2.401  0.6606  0.7295  1.8525
11061SOL    HW234625   6.546   0.154   2.365 -0.3433 -2.1138 -0.7882
11062SOL     OW34626   5.187   0.577  10.128 -0.3974  0.0381 -0.1663
11062SOL    HW134627   5.110   0.543  10.174 -1.1454  1.9516  0.1314
11062SOL    HW234628   5.237   0.623  10.195  0.7021 -0.6419 -0.4894
11063SOL     OW34629   0.981   2.236   6.173  0.1172  0.2942 -0.1567
11063SOL    HW134630   1.009   2.211   6.084 -1.0815 -1.7634 -0.0201
11063SOL    HW234631   0.886   2.249   6.166 -0.2311 -1.2759  1.0592
11064SOL     OW34632   3.236   5.477   2.236 -0.4443  0.0750 -0.0651
11064SOL    HW134633   3.234   5.510   2.326 -0.2767 -1.0991  0.3807
11064SOL    HW234634   3.164   5.524   2.192  0.4001  1.7622  0.2606
11065SOL     OW34635   6.248   3.079   5.047  0.0429  0.4251 -0.2586
11065SOL    HW134636   6.159   3.088   5.081  0.3097  0.9369  0.3289
11065SOL    HW234637   6.292   3.024   5.112  0.0790 -0.0583 -0.6929
11066SOL     OW34638   2.007   0.240  12.030 -0.2047 -0.2436 -0.0355
11066SOL    HW134639   1.959   0.159  12.048 -0.5992 -0.7690 -3.0467
11066SOL    HW234640   1.947   0.310  12.055 -1.5543 -0.9085 -1.3176
11067SOL     OW34641   3.967   0.976   2.497  0.4211  0.3740 -0.0440
11067SOL    HW134642   3.985   1.058   2.543 -0.4399  0.5504 -0.0142
11067SOL    HW234643   3.947   1.003   2.407 -1.9934  0.4289  0.4441
11068SOL     OW34644   5.919   2.348  10.211  0.0813 -0.8250 -0.0573
11068SOL    HW134645   5.854   2.281  10.191  0.2187 -0.7300 -0.8180
11068SOL    HW234646   5.884   2.428  10.173 -0.0506 -0.4696  0.7938
11069SOL     OW34647   4.370   6.972   6.641 -0.0051 -0.3784 -0.3108
11069SOL    HW134648   4.461   6.969   6.669  0.1923  0.6315 -0.8385
11069SOL    HW234649   4.367   7.038   6.573 -1.0522 -0.7200 -0.6177
11070SOL     OW34650   2.262   5.189   0.555  0.7823  0.5473 -0.4062
11070SOL    HW134651   2.299   5.218   0.638  0.5788 -0.7603  0.1658
11070SOL    HW234652   2.331   5.137   0.514  1.2134  1.9194 -1.5102
11071SOL     OW34653   1.466   7.582  10.494 -0.0274 -0.6414  0.2703
11071SOL    HW134654   1.423   7.655  10.538  1.8580  1.1505 -0.6706
11071SOL    HW234655   1.443   7.593  10.402 -0.3297 -1.7052  0.2060
11072SOL     OW34656   6.190   7.478   6.455 -0.3150  0.1264 -0.2403
11072SOL    HW134657   6.165   7.500   6.545 -1.3252 -2.1390  0.0979
11072SOL    HW234658   6.262   7.416   6.465  1.0995  1.5491 -1.0975
11073SOL     OW34659   6.937   3.639   0.547 -0.4537 -0.0162  0.0988
11073SOL    HW134660   6.913   3.730   0.530 -1.4961 -0.3579 -0.2963
11073SOL    HW234661   6.860   3.600   0.587 -0.7357 -1.2262 -1.5170
11074SOL     OW34662   1.779   7.935  10.355 -0.4242 -0.5509  0.2299
11074SOL    HW134663   1.737   8.007  10.309 -0.4374 -0.0250  1.0626
11074SOL    HW234664   1.789   7.867  10.288  2.6020  1.3494 -1.5105
11075SOL     OW34665   6.242   5.234  11.563  0.1804 -0.0250 -0.1269
11075SOL    HW134666   6.201   5.203  11.644 -0.7132  2.4582  0.4943
11075SOL    HW234667   6.324   5.274  11.591  0.3037  0.0328 -0.5622
11076SOL     OW34668   3.884   6.143  11.856 -0.5583 -0.1513 -0.4232
11076SOL    HW134669   3.921   6.106  11.936  0.4455  0.7738 -0.4350
11076SOL    HW234670   3.837   6.222  11.886 -1.6008 -0.7035 -0.5542
11077SOL     OW34671   7.368   3.881   0.984 -0.2429  0.3569  0.1302
11077SOL    HW134672   7.347   3.925   1.066 -0.3175  0.6662 -0.0542
11077SOL    HW234673   7.397   3.794   1.010 -0.1958  0.4796  0.4896
11078SOL     OW34674   4.534   7.729   6.951  0.4106 -0.1087 -0.2823
11078SOL    HW134675   4.504   7.746   6.862  1.8220  0.0115 -0.7492
11078SOL    HW234676   4.546   7.816   6.989  1.2618 -0.1282 -0.4867
11079SOL     OW34677   3.095   0.992  12.423  0.0349  0.2289 -0.6192
11079SOL    HW134678   3.112   0.908  12.381  0.3392  1.1320 -2.4097
11079SOL    HW234679   3.011   1.021  12.386  0.2828  1.0266 -0.5749
11080SOL     OW34680   0.234   7.029   2.387  0.2851  0.1364  0.0084
11080SOL    HW134681   0.306   7.076   2.430  0.3113 -0.7245  0.9341
11080SOL    HW234682   0.277   6.957   2.341  0.2420  0.9555 -1.4002
11081SOL     OW34683   2.627   5.852  11.630 -0.0179  0.3541 -0.6780
11081SOL    HW134684   2.622   5.947  11.638 -1.6883  0.3589 -1.3761
11081SOL    HW234685   2.536   5.824  11.619  0.6149 -0.9980 -3.7066
11082SOL     OW34686   0.787   3.850   1.622  0.3587 -0.0728  0.2188
11082SOL    HW134687   0.773   3.904   1.544  1.7226 -0.4021 -0.2929
11082SOL    HW234688   0.701   3.845   1.664 -0.8933 -1.3814 -2.2431
11083SOL     OW34689   0.835   3.375   5.362 -0.0316  0.4629 -0.0302
11083SOL    HW134690   0.853   3.281   5.354 -0.6226  0.3321  0.1389
11083SOL    HW234691   0.794   3.399   5.279  1.1396  0.8249 -0.5326
11084SOL     OW34692   2.428   5.097   8.861  0.0711  0.3061 -0.1764
11084SOL    HW134693   2.421   5.075   8.954  0.2989 -0.6234 -0.3635
11084SOL    HW234694   2.343   5.072   8.824  0.2877 -0.1637 -0.3694
11085SOL     OW34695   2.010   1.015   8.287  0.7225  0.1995 -0.3903
11085SOL    HW134696   1.999   1.038   8.195 -0.5139  1.3256 -0.0079
11085SOL    HW234697   1.932   0.962   8.307  1.2225 -0.4318 -0.1072
11086SOL     OW34698   6.413   0.094   6.181 -0.0399 -0.1367 -0.6377
11086SOL    HW134699   6.481   0.028   6.194  0.4130 -0.0319 -2.2726
11086SOL    HW234700   6.444   0.170   6.229  1.2259  0.0482 -1.7076
11087SOL     OW34701   1.615   5.525   0.292  0.1779 -0.1304 -0.3621
11087SOL    HW134702   1.682   5.577   0.335 -0.8387  0.6378  0.3444
11087SOL    HW234703   1.612   5.444   0.343 -0.3116  0.3605  0.4115
11088SOL     OW34704   6.015   7.417   7.864  0.2495  0.1870 -0.4827
11088SOL    HW134705   6.104   7.433   7.831 -0.1664  1.4824 -1.0338
11088SOL    HW234706   6.009   7.472   7.942 -0.2497  0.5018 -0.7449
11089SOL     OW34707   6.037   0.195  11.392 -0.2256  0.4021 -0.2625
11089SOL    HW134708   6.043   0.279  11.346 -1.4288  0.5257 -0.2322
11089SOL    HW234709   6.032   0.130  11.322  0.3467  0.3719 -0.2845
11090SOL     OW34710   2.460   2.774   8.046  0.3171 -0.4343 -0.1267
11090SOL    HW134711   2.538   2.723   8.025 -0.4376 -1.7733  0.2160
11090SOL    HW234712   2.388   2.712   8.038 -0.6335  0.5778  0.3633
11091SOL     OW34713   2.999   0.300   0.023 -0.3658  0.1665  0.1370
11091SOL    HW134714   2.944   0.371   0.055  1.7590  1.7601  0.4801
11091SOL    HW234715   3.039   0.264   0.102 -1.5650 -1.6106 -0.0111
11092SOL     OW34716   2.391   7.380   9.730 -0.4216  0.4192 -0.3704
11092SOL    HW134717   2.396   7.361   9.636 -0.3524  1.5415 -0.6128
11092SOL    HW234718   2.450   7.454   9.742  0.4939 -0.4685  0.7860
11093SOL     OW34719   2.120   3.385   9.590  0.2102 -0.5802  0.3224
11093SOL    HW134720   2.169   3.463   9.567  1.8510 -2.0205 -1.3799
11093SOL    HW234721   2.028   3.413   9.586  0.7203  1.1050 -0.8900
11094SOL     OW34722   0.024   6.536   4.252  0.2923 -0.0699 -0.2429
11094SOL    HW134723   0.033   6.484   4.332 -0.0551 -0.1250 -0.2382
11094SOL    HW234724  -0.069   6.528   4.228  0.4789 -0.4006 -0.8808
11095SOL     OW34725   7.877   1.619   2.757 -0.2653  0.0173  0.2383
11095SOL    HW134726   7.915   1.540   2.795  0.1733  0.3490  0.4945
11095SOL    HW234727   7.816   1.651   2.823 -1.4813 -0.8559 -0.4218
11096SOL     OW34728   2.254   1.162  12.349  0.4366  0.1500 -0.7349
11096SOL    HW134729   2.214   1.121  12.425  0.4286 -1.5730 -1.6286
11096SOL    HW234730   2.213   1.120  12.274 -2.2453  4.2644 -1.8958
11097SOL     OW34731   5.507   3.337  12.314  0.2535  0.3511  0.0098
11097SOL    HW134732   5.444   3.269  12.290 -0.9505  1.9475 -1.6252
11097SOL    HW234733   5.537   3.373  12.230 -0.6401  3.1000  0.7687
11098SOL     OW34734   4.714   6.630   3.435 -0.6372  0.0645 -0.1712
11098SOL    HW134735   4.760   6.678   3.504 -0.1227  1.6175 -1.5514
11098SOL    HW234736   4.643   6.689   3.408  0.8464  0.7449 -2.8555
11099SOL     OW34737   0.671   1.555   4.035 -0.1259 -0.3840  0.2253
11099SOL    HW134738   0.676   1.459   4.039 -0.6178 -0.5314 -1.6860
11099SOL    HW234739   0.761   1.583   4.019 -0.0092 -0.5265  0.6097
11100SOL     OW34740   5.573   7.263   7.067  0.5785 -0.4562  0.5796
11100SOL    HW134741   5.510   7.213   7.118 -1.7163  2.1185  0.5181
11100SOL    HW234742   5.548   7.247   6.976  0.0071  0.5336  0.5523
11101SOL     OW34743   3.327   1.367  11.359 -0.0348  0.1550 -0.0003
11101SOL    HW134744   3.314   1.279  11.394  0.2187  0.3151  0.5112
11101SOL    HW234745   3.240   1.394  11.331 -0.3260  0.1565  0.8554
11102SOL     OW34746   4.802   6.149   3.967  0.0779 -0.0786 -0.1689
11102SOL    HW134747   4.740   6.212   4.003  0.2461  0.1085 -0.2063
11102SOL    HW234748   4.881   6.200   3.950  0.3187 -0.3642  0.0967
11103SOL     OW34749   4.489   0.094  10.792 -0.3189  0.4815  0.1410
11103SOL    HW134750   4.549   0.130  10.857 -0.8099  0.3180  0.6958
11103SOL    HW234751   4.419   0.054  10.844 -1.4283  1.5385 -0.4708
11104SOL     OW34752   7.100   2.776   4.326  0.2277 -0.0524 -0.1683
11104SOL    HW134753   7.185   2.734   4.322  0.0446 -0.3774 -1.0542
11104SOL    HW234754   7.118   2.869   4.313  0.3472 -0.2737 -1.7708
11105SOL     OW34755   1.072   6.570   1.777  0.1362  0.3845 -0.4352
11105SOL    HW134756   1.060   6.616   1.694 -1.2144  1.9495  0.5768
11105SOL    HW234757   1.139   6.621   1.824  0.8680 -0.4721 -0.5107
11106SOL     OW34758   6.891   4.377  12.243  0.0164 -0.4728 -0.1927
11106SOL    HW134759   6.875   4.461  12.286  0.7825  0.0139 -0.8334
11106SOL    HW234760   6.858   4.312  12.305  1.2480  0.1990  1.2268
11107SOL     OW34761   4.195   1.801   7.818  0.3599 -0.7579  0.2198
11107SOL    HW134762   4.219   1.713   7.789 -0.6022 -0.9259 -0.1012
11107SOL    HW234763   4.194   1.795   7.914  2.4001 -0.5039  0.3135
11108SOL     OW34764   5.275   2.736  10.483 -0.1108  0.2451  0.1962
11108SOL    HW134765   5.277   2.659  10.539  4.1362  0.5077  0.7587
11108SOL    HW234766   5.250   2.703  10.396 -0.3285 -1.3652  0.8516
11109SOL     OW34767   6.713   2.111   4.150  0.1378  0.2391  0.0973
11109SOL    HW134768   6.692   2.182   4.090  0.4700  0.9046  0.7489
11109SOL    HW234769   6.809   2.106   4.149  0.1781  0.5697  0.8916
11110SOL     OW34770   1.214   1.747   0.635 -0.5437  0.1224  0.0032
11110SOL    HW134771   1.189   1.693   0.710  0.8873 -0.7575 -0.1213
11110SOL    HW234772   1.259   1.822   0.674  0.9327 -0.7410  0.0285
11111SOL     OW34773   1.928   4.740   0.567 -0.1994  0.1211 -0.1102
11111SOL    HW134774   2.003   4.788   0.603  0.3511 -1.4634  1.0111
11111SOL    HW234775   1.851   4.784   0.603  0.3094 -0.3779  1.7121
11112SOL     OW34776   4.437   7.249   5.986 -0.0365  0.1038 -0.0866
11112SOL    HW134777   4.436   7.178   6.050 -0.5212 -1.0315 -1.2883
11112SOL    HW234778   4.394   7.212   5.909 -0.8246  1.9047 -0.5732
11113SOL     OW34779   5.753   1.559   5.365  0.3882  0.4770 -0.0073
11113SOL    HW134780   5.790   1.477   5.332  0.1762  0.1262  0.5957
11113SOL    HW234781   5.758   1.620   5.292  1.7330  0.3064 -0.0808
11114SOL     OW34782   1.421   7.706  10.223  0.2641 -0.1835 -0.3289
11114SOL    HW134783   1.425   7.797  10.192  0.5228  0.0150  0.2756
11114SOL    HW234784   1.333   7.696  10.258  0.7501  0.3447  1.1102
11115SOL     OW34785   3.919   6.549   2.407  0.4676 -0.0095 -0.4383
11115SOL    HW134786   4.010   6.575   2.391  0.1932  1.2492 -0.0843
11115SOL    HW234787   3.926   6.468   2.457  1.3655 -0.9611 -2.0398
11116SOL     OW34788   3.575   5.332   1.638  0.4641  0.6793  0.5443
11116SOL    HW134789   3.500   5.386   1.612  1.4529  1.5637 -0.5903
11116SOL    HW234790   3.560   5.312   1.731 -1.9518 -0.4978 -0.0172
11117SOL     OW34791   2.920   5.804   7.489 -0.4004 -0.1967 -0.4249
11117SOL    HW134792   2.865   5.857   7.546 -1.0351  0.6996 -1.8260
11117SOL    HW234793   2.899   5.713   7.513 -1.6837  0.1426 -0.1925
11118SOL     OW34794   0.694   2.885   8.372  0.0629 -0.2499  0.3292
11118SOL    HW134795   0.684   2.928   8.287 -0.9849 -1.2853 -0.0910
11118SOL    HW234796   0.611   2.900   8.416  0.3056 -0.4224  0.8558
11119SOL     OW34797   3.515   7.651   4.256  0.1735  0.1380  0.8340
11119SOL    HW134798   3.487   7.738   4.282 -0.0543  0.3974 -0.2198
11119SOL    HW234799   3.604   7.663   4.222  0.2053 -0.0606  0.8446
11120SOL     OW34800   4.322   1.457   3.275 -0.1382 -0.1850 -0.0742
11120SOL    HW134801   4.293   1.547   3.267  2.0839  0.7241  1.1576
11120SOL    HW234802   4.257   1.416   3.332 -0.2727  1.1057  0.7323
11121SOL     OW34803   5.383   3.518   0.900  0.2675 -0.0639  0.6574
11121SOL    HW134804   5.398   3.596   0.846  1.1074 -2.2236 -2.5558
11121SOL    HW234805   5.331   3.460   0.844 -0.4507 -1.8239  2.9673
11122SOL     OW34806   7.130   1.207   7.609 -0.4898 -0.3663 -0.7367
11122SOL    HW134807   7.136   1.138   7.675  2.9805  0.8106  0.4004
11122SOL    HW234808   7.152   1.164   7.526 -0.9398 -1.1049 -0.4779
11123SOL     OW34809   1.719   3.947   4.389  0.2825  0.1162  0.1072
11123SOL    HW134810   1.687   3.970   4.476 -1.0445  1.3150 -0.6427
11123SOL    HW234811   1.640   3.937   4.336  1.0833  1.7198 -1.4994
11124SOL     OW34812   6.868   6.624  12.054 -0.3203 -0.0023  0.1275
11124SOL    HW134813   6.892   6.534  12.029 -2.2512 -0.2947 -0.8402
11124SOL    HW234814   6.872   6.623  12.150 -0.3417 -1.1496  0.1418
11125SOL     OW34815   1.894   7.890  11.554 -0.0672  0.3195  0.1394
11125SOL    HW134816   1.890   7.964  11.615 -0.0863  2.0922 -1.8864
11125SOL    HW234817   1.959   7.831  11.592 -1.2361  0.5320  2.6491
11126SOL     OW34818   5.611   3.622   9.491 -0.0131  0.2605 -0.0280
11126SOL    HW134819   5.568   3.536   9.495  0.6379 -0.0768 -0.2351
11126SOL    HW234820   5.682   3.616   9.555  0.6227  0.3153 -0.7220
11127SOL     OW34821   5.438   5.789  11.473  0.2991 -0.1481 -0.1952
11127SOL    HW134822   5.386   5.739  11.535  1.0982  1.8231  2.2246
11127SOL    HW234823   5.451   5.729  11.399 -0.9103 -2.5344  1.3935
11128SOL     OW34824   4.756   0.516   5.452  0.1354  0.2739  0.2998
11128SOL    HW134825   4.830   0.551   5.502  0.3652 -0.7550  0.6881
11128SOL    HW234826   4.793   0.495   5.366  0.5367 -1.1295  0.7927
11129SOL     OW34827   3.937   3.837   7.685 -0.8219  0.0463  0.2233
11129SOL    HW134828   3.927   3.842   7.780  0.3122 -2.3017  0.5543
11129SOL    HW234829   3.861   3.883   7.649 -1.0382  1.3582  2.2371
11130SOL     OW34830   5.162   3.025   4.002  0.4442 -0.1706 -0.0525
11130SOL    HW134831   5.126   2.937   3.987  1.4329 -0.5975 -0.0112
11130SOL    HW234832   5.119   3.080   3.935 -0.4301 -0.6010  0.1327
11131SOL     OW34833   6.597   5.518   2.335 -0.0137 -0.2080 -0.2555
11131SOL    HW134834   6.535   5.453   2.303 -1.7915  1.3308 -0.0724
11131SOL    HW234835   6.578   5.525   2.429  0.4369  0.2922 -0.1994
11132SOL     OW34836   2.180   3.697   9.769 -0.3988 -0.3064  0.1909
11132SOL    HW134837   2.247   3.634   9.798 -0.8158 -1.4737 -1.2785
11132SOL    HW234838   2.228   3.758   9.713 -0.2646 -0.1174  0.5025
11133SOL     OW34839   4.242   5.297  11.313 -0.8292 -0.1239  0.8210
11133SOL    HW134840   4.174   5.249  11.359 -3.0890  1.7170 -0.3631
11133SOL    HW234841   4.276   5.359  11.378 -0.5164 -0.8066  1.3179
11134SOL     OW34842   2.765   4.748   0.850 -0.2069 -0.3212  0.2388
11134SOL    HW134843   2.712   4.737   0.771  2.8206  1.9117 -2.3535
11134SOL    HW234844   2.717   4.812   0.903 -1.2741 -0.2101 -0.8287
11135SOL     OW34845   0.321   7.858  11.762  0.3626  0.2326 -0.1659
11135SOL    HW134846   0.287   7.770  11.746  0.8411  0.4071 -2.5205
11135SOL    HW234847   0.398   7.844  11.817  0.7962 -0.9058 -1.0211
11136SOL     OW34848   5.805   2.529  10.034 -0.1542 -0.2437 -0.4898
11136SOL    HW134849   5.715   2.555  10.057  0.1288  0.0979  0.2748
11136SOL    HW234850   5.806   2.528   9.939 -1.2599 -1.2680 -0.5136
11137SOL     OW34851   3.480   7.185   3.834 -0.0352 -0.4521  0.4427
11137SOL    HW134852   3.410   7.212   3.774  1.4122  1.0393 -0.6608
11137SOL    HW234853   3.483   7.089   3.825  0.5130 -0.2621 -2.4079
11138SOL     OW34854   6.387   2.619   3.630  0.1026  0.3476  0.2491
11138SOL    HW134855   6.301   2.618   3.673  0.8286 -0.7308  1.7391
11138SOL    HW234856   6.378   2.555   3.559  0.0709 -0.8483  1.2858
11139SOL     OW34857   6.426   6.267   9.129 -0.0021 -0.3096 -0.4448
11139SOL    HW134858   6.493   6.333   9.116  0.6286 -1.0295 -0.8737
11139SOL    HW234859   6.444   6.200   9.064 -0.1644 -1.2763  0.4768
11140SOL     OW34860   4.340   1.096  10.570  0.1841 -0.5132  0.0713
11140SOL    HW134861   4.373   1.049  10.647  1.1050  0.8991  0.5662
11140SOL    HW234862   4.245   1.080  10.572  0.2718 -1.0047  1.1578
11141SOL     OW34863   3.120   0.997   1.598  0.2280  0.3639  0.3191
11141SOL    HW134864   3.127   0.905   1.623 -0.0339 -0.4840 -2.3687
11141SOL    HW234865   3.028   1.018   1.609 -0.1584 -0.4232 -1.1093
11142SOL     OW34866   2.742   4.283   4.280  0.0121 -0.1854  0.6146
11142SOL    HW134867   2.811   4.327   4.331  0.2452  1.2326 -0.8450
11142SOL    HW234868   2.781   4.199   4.255  0.1629 -0.5957  2.0981
11143SOL     OW34869   3.257   2.756   3.692 -0.1378  0.6876 -0.1838
11143SOL    HW134870   3.207   2.675   3.686 -0.7081  1.0998 -1.3783
11143SOL    HW234871   3.315   2.743   3.767 -1.2821 -0.2223  0.5806
11144SOL     OW34872   2.215   0.436   9.856  0.1889  0.6468  0.7980
11144SOL    HW134873   2.301   0.473   9.877  0.2773  0.2568  1.1240
11144SOL    HW234874   2.200   0.371   9.925  0.2243 -0.2359 -0.0203
11145SOL     OW34875   2.711   0.751  12.132 -0.0586  0.5033 -0.3403
11145SOL    HW134876   2.633   0.765  12.079 -0.2305 -0.7682 -0.4448
11145SOL    HW234877   2.784   0.764  12.072 -0.2195  0.6158 -0.5098
11146SOL     OW34878   1.855   2.624   2.973  0.0499  0.3387  0.4558
11146SOL    HW134879   1.912   2.635   2.896 -0.0955 -1.7560 -0.0101
11146SOL    HW234880   1.870   2.533   3.001 -2.8395 -0.2039  0.4884
11147SOL     OW34881   7.477   4.677   8.124 -0.4819 -0.1169  0.8988
11147SOL    HW134882   7.420   4.727   8.181  0.1567  1.5492  0.1399
11147SOL    HW234883   7.529   4.622   8.183  0.1032  1.4936  1.9383
11148SOL     OW34884   4.356   7.440   1.110 -0.2486  0.4923  0.0902
11148SOL    HW134885   4.327   7.472   1.025  0.0561  1.9870  0.5163
11148SOL    HW234886   4.423   7.502   1.137 -1.1857  0.7705  1.9582
11149SOL     OW34887   3.951   1.254   1.103 -0.0561  0.9906  0.5568
11149SOL    HW134888   3.950   1.159   1.114 -0.9221  0.7506 -1.1656
11149SOL    HW234889   3.877   1.285   1.155 -0.5832  0.5589  0.0773
11150SOL     OW34890   0.686   4.400  11.818  0.6334 -0.4509  0.3275
11150SOL    HW134891   0.593   4.407  11.797  0.7805  0.0514 -0.1889
11150SOL    HW234892   0.688   4.363  11.906 -0.0664 -0.0111  0.5366
11151SOL     OW34893   6.109   0.861   0.032  0.2109  0.0088 -1.0606
11151SOL    HW134894   6.162   0.939   0.050 -0.5884  0.1084  1.1534
11151SOL    HW234895   6.055   0.886  -0.043  0.2165  1.4905 -0.6019
11152SOL     OW34896   1.713   7.176   1.729  0.0854  0.2636  0.0388
11152SOL    HW134897   1.734   7.143   1.817 -1.7835 -0.6276  0.2000
11152SOL    HW234898   1.746   7.108   1.670  1.4206  0.9038  0.0245
11153SOL     OW34899   0.066   6.982   4.800 -0.0294 -0.2134 -0.3620
11153SOL    HW134900  -0.002   6.985   4.732 -0.5601 -0.1908  0.1607
11153SOL    HW234901   0.064   6.892   4.832 -0.5703  0.0510  0.3953
11154SOL     OW34902   7.586   3.021   7.347 -0.0365 -0.1075  0.0996
11154SOL    HW134903   7.605   3.049   7.436  0.3618  0.6880 -0.2244
11154SOL    HW234904   7.540   3.095   7.308 -2.7131 -1.4734  0.4465
11155SOL     OW34905   4.106   0.271   0.205  0.5147 -0.1611 -0.1565
11155SOL    HW134906   4.066   0.313   0.129  0.6165 -0.4569 -0.3740
11155SOL    HW234907   4.084   0.329   0.279 -0.5428 -0.4525 -0.2215
11156SOL     OW34908   7.951   0.437  10.138 -0.0639 -0.5929 -0.3580
11156SOL    HW134909   8.007   0.456  10.063 -0.3957  2.0269 -0.0526
11156SOL    HW234910   7.883   0.504  10.134 -1.1037 -1.4912  1.3016
11157SOL     OW34911   3.907   6.674   7.376  0.1888 -0.2066  0.0205
11157SOL    HW134912   3.991   6.714   7.357  0.5501 -0.1614  1.5811
11157SOL    HW234913   3.854   6.746   7.412 -1.0282  0.1069 -2.1816
11158SOL     OW34914   2.851   7.318   4.409  0.0868  0.0069  0.0649
11158SOL    HW134915   2.937   7.352   4.386  0.6023 -0.7004  0.8859
11158SOL    HW234916   2.799   7.395   4.430  0.5635  0.4312 -0.2922
11159SOL     OW34917   7.476   6.473   2.830 -0.0737  0.3900  0.1664
11159SOL    HW134918   7.401   6.533   2.830  0.3776  0.9555  0.0182
11159SOL    HW234919   7.543   6.518   2.779 -0.1294 -0.7544 -0.9880
11160SOL     OW34920   3.820   4.916  10.186 -0.0737 -0.1403 -0.2287
11160SOL    HW134921   3.753   4.847  10.187 -1.5783  1.2549  1.5247
11160SOL    HW234922   3.903   4.868  10.187 -1.0654 -1.9728  1.7856
11161SOL     OW34923   1.531   2.204   3.897  0.2375 -0.8055  0.5064
11161SOL    HW134924   1.521   2.148   3.974 -0.4670 -0.3744  0.7298
11161SOL    HW234925   1.466   2.272   3.908 -0.2207 -1.0201 -0.7279
11162SOL     OW34926   6.571   6.496   9.036 -0.0330 -0.3675 -0.6146
11162SOL    HW134927   6.584   6.544   9.118  0.8980  2.2143 -2.1716
11162SOL    HW234928   6.659   6.468   9.011 -0.4333 -2.0424 -0.3111
11163SOL     OW34929   4.427   5.139   1.579 -0.1800 -0.0904 -0.5692
11163SOL    HW134930   4.442   5.081   1.504  0.7442 -0.9106  0.2284
11163SOL    HW234931   4.393   5.220   1.540  1.5203 -0.0165 -2.0051
11164SOL     OW34932   6.543   0.622   3.373 -0.0003  0.0681  0.3445
11164SOL    HW134933   6.539   0.713   3.401  1.9593  0.3169 -0.0193
11164SOL    HW234934   6.492   0.619   3.292  0.7305  1.0762 -0.1694
11165SOL     OW34935   1.926   0.158   7.287  0.3347 -0.2673 -0.4038
11165SOL    HW134936   1.946   0.160   7.381 -2.1171  0.4984  0.1874
11165SOL    HW234937   1.993   0.213   7.247  0.7016  0.4235  1.0793
11166SOL     OW34938   3.640   5.639   9.947 -0.3185  0.5528 -1.0147
11166SOL    HW134939   3.660   5.711   9.888  0.4661  1.6249  0.4924
11166SOL    HW234940   3.673   5.667  10.032 -0.8887 -1.1735 -0.1625
11167SOL     OW34941   0.854   0.141   8.075  0.0762  0.3474 -0.0198
11167SOL    HW134942   0.847   0.183   7.989 -1.0099 -1.2129 -0.7254
11167SOL    HW234943   0.843   0.213   8.137 -2.1634  1.0903 -1.1842
11168SOL     OW34944   2.660   7.571   8.834  0.4627 -0.3540 -0.2440
11168SOL    HW134945   2.661   7.475   8.837 -0.1352 -0.4277 -1.4635
11168SOL    HW234946   2.592   7.592   8.770 -1.0789  0.9572  1.7341
11169SOL     OW34947   6.667   1.530   7.700 -0.3159 -0.6613  0.6442
11169SOL    HW134948   6.667   1.623   7.720  0.4271 -0.7886  1.2797
11169SOL    HW234949   6.757   1.511   7.674 -0.7083 -0.9943 -0.5346
11170SOL     OW34950   2.206   4.879   2.209  0.3041  0.0132  0.1230
11170SOL    HW134951   2.279   4.934   2.182 -0.2332  0.2793 -0.7998
11170SOL    HW234952   2.214   4.800   2.155 -0.0733  0.0298  0.0415
11171SOL     OW34953   6.744   2.914   1.031  0.0261 -0.3730 -0.4503
11171SOL    HW134954   6.770   2.822   1.033  1.2709 -0.0280  0.6037
11171SOL    HW234955   6.712   2.928   0.941 -0.0839 -1.7927 -0.6513
11172SOL     OW34956   1.032   7.919   9.841 -0.1704 -0.1106  0.5168
11172SOL    HW134957   1.122   7.888   9.831 -0.1148  0.2610 -0.2044
11172SOL    HW234958   1.033   8.008   9.807 -1.0500 -0.5097 -0.6405
11173SOL     OW34959   1.500   1.630  11.826 -0.9476  0.5397 -0.1498
11173SOL    HW134960   1.523   1.537  11.828 -2.3366  0.1762  1.4085
11173SOL    HW234961   1.564   1.670  11.767  1.9463 -0.7737  1.8689
11174SOL     OW34962   6.977   3.465   2.895  0.1972 -0.6610  0.1054
11174SOL    HW134963   6.994   3.408   2.820  1.4907 -0.0009 -0.1259
11174SOL    HW234964   6.965   3.404   2.968 -2.3250 -1.3795 -0.7886
11175SOL     OW34965   5.006   1.912   9.077 -0.5513  0.0980  0.0301
11175SOL    HW134966   5.088   1.865   9.092 -1.8045 -1.8223  1.2761
11175SOL    HW234967   4.979   1.942   9.164 -1.3681  0.3419 -0.2988
11176SOL     OW34968   3.054   2.623   3.249 -0.3547 -0.1720  0.7647
11176SOL    HW134969   3.024   2.702   3.294  0.1869 -0.3201  1.3994
11176SOL    HW234970   3.087   2.654   3.165  1.6133  0.5580  1.7420
11177SOL     OW34971   3.903   6.269   1.979 -0.2856  0.6757  0.3391
11177SOL    HW134972   3.985   6.287   2.025  0.6200  0.9409 -1.3269
11177SOL    HW234973   3.889   6.175   1.990  0.9266  0.3907 -0.4283
11178SOL     OW34974   7.702   7.523   8.247 -0.0121 -0.4816  0.2693
11178SOL    HW134975   7.629   7.514   8.186  0.5717 -2.3112 -0.2376
11178SOL    HW234976   7.700   7.443   8.299  1.0885 -0.1490  0.8585
11179SOL     OW34977   0.601   2.792   6.353 -0.3132 -0.0279  0.2300
11179SOL    HW134978   0.586   2.884   6.376  1.5663  0.0803  1.2571
11179SOL    HW234979   0.524   2.767   6.303 -1.3304  1.8191  0.7727
11180SOL     OW34980   7.782   0.135   1.490 -0.0859 -0.1240  0.1899
11180SOL    HW134981   7.762   0.203   1.554 -0.1672  1.1747 -1.1668
11180SOL    HW234982   7.875   0.146   1.471 -0.2459  0.0233 -0.5126
11181SOL     OW34983   2.002   0.528  11.532 -0.3327  0.0922  0.2277
11181SOL    HW134984   1.989   0.504  11.624  0.8493  1.3219  0.7488
11181SOL    HW234985   2.009   0.444  11.487 -2.0390 -0.5436  1.0666
11182SOL     OW34986   7.316   5.166  12.403 -0.0796  0.6135  0.3288
11182SOL    HW134987   7.255   5.238  12.418  0.8029  1.2722  0.8110
11182SOL    HW234988   7.289   5.098  12.464 -0.8984  0.5336 -0.1068
11183SOL     OW34989   1.088   4.882  10.443  0.0917 -0.0684  0.2337
11183SOL    HW134990   1.129   4.891  10.357 -2.5569  0.6398 -1.0939
11183SOL    HW234991   1.151   4.918  10.505  2.3052 -1.1096 -1.3111
11184SOL     OW34992   0.549   3.473   8.222  0.1095  0.1571  0.4496
11184SOL    HW134993   0.463   3.444   8.252 -0.0913 -2.4953 -2.2560
11184SOL    HW234994   0.607   3.398   8.238  1.5403  1.2352  0.5669
11185SOL     OW34995   0.106   3.961   5.331  0.0351 -0.0242 -0.2796
11185SOL    HW134996   0.109   3.871   5.364 -0.5180 -0.2437 -0.8140
11185SOL    HW234997   0.187   3.972   5.282  0.2351 -0.1365  0.0232
11186SOL     OW34998   4.198   5.226   7.771  0.6219  0.1058 -0.1793
11186SOL    HW134999   4.205   5.319   7.791 -0.8385 -0.0355  1.1370
11186SOL    HW235000   4.248   5.183   7.840  1.6239 -0.1005 -1.0037
11187SOL     OW35001   7.391   4.117   8.451 -0.1242 -0.1930 -0.2825
11187SOL    HW135002   7.413   4.063   8.375 -1.6412 -0.1971 -0.7457
11187SOL    HW235003   7.443   4.079   8.522  0.3630 -0.9837 -1.0276
11188SOL     OW35004   2.048   5.777   1.215  0.1030 -0.0565  0.2367
11188SOL    HW135005   2.040   5.697   1.267  1.8296  0.5115  1.4556
11188SOL    HW235006   1.958   5.798   1.189 -0.7950 -0.6016  2.6847
11189SOL     OW35007   2.861   6.831   2.774 -0.1476 -0.2163  0.3495
11189SOL    HW135008   2.903   6.905   2.818  2.9069 -0.7658 -1.3711
11189SOL    HW235009   2.842   6.769   2.844 -1.8061  1.6731  1.6910
11190SOL     OW35010   0.982   7.046   9.934  0.0146 -0.5309 -0.5365
11190SOL    HW135011   0.957   6.968   9.885 -3.2539  0.3256 -0.5205
11190SOL    HW235012   0.936   7.037  10.018 -0.4995  1.4000 -0.5649
11191SOL     OW35013   1.374   3.772   1.232 -0.2482 -0.3314  0.2043
11191SOL    HW135014   1.409   3.693   1.273 -1.3479 -0.3992  1.0307
11191SOL    HW235015   1.299   3.797   1.286 -1.1580  0.1236 -1.2131
11192SOL     OW35016   3.210   7.075   5.721  0.3613 -0.0126  0.3959
11192SOL    HW135017   3.278   7.009   5.733  1.0197  0.4497 -0.5921
11192SOL    HW235018   3.182   7.098   5.809  0.9897 -0.7262  0.7866
11193SOL     OW35019   6.799   7.631   0.730 -0.1388  0.0815  0.2282
11193SOL    HW135020   6.728   7.597   0.785  0.4267  1.8251  2.1431
11193SOL    HW235021   6.760   7.707   0.686  0.1603  0.2860  0.3124
11194SOL     OW35022   7.570   6.652   9.411 -0.2727  0.2216 -0.3052
11194SOL    HW135023   7.620   6.699   9.477  0.2804  0.0246 -0.5767
11194SOL    HW235024   7.574   6.561   9.439 -1.2730  0.3160  0.1772
11195SOL     OW35025   5.685   5.944   3.252  0.9637 -0.2943 -0.1988
11195SOL    HW135026   5.662   5.852   3.242  0.9314 -0.2949 -0.1176
11195SOL    HW235027   5.618   5.991   3.202 -0.6969 -0.1365  1.9768
11196SOL     OW35028   6.704   0.122   0.544 -0.1563  0.0924  0.0628
11196SOL    HW135029   6.653   0.108   0.624  0.8886  1.1821  0.9355
11196SOL    HW235030   6.638   0.135   0.476 -1.0698 -1.3569  0.6109
11197SOL     OW35031   3.911   0.978  10.194 -0.4986  0.1847 -0.2554
11197SOL    HW135032   3.941   0.996  10.105 -1.3444 -0.9806 -0.8099
11197SOL    HW235033   3.815   0.987  10.189 -0.5257  0.5551  0.6526
11198SOL     OW35034   7.671   4.260   1.421 -0.8991  0.0873  0.1774
11198SOL    HW135035   7.700   4.341   1.462  0.4454 -0.2404 -0.0869
11198SOL    HW235036   7.576   4.259   1.434 -0.7862  1.1332  1.1906
11199SOL     OW35037   0.331   1.805   4.241 -0.2115  0.1498 -0.5521
11199SOL    HW135038   0.393   1.790   4.170  0.9291 -1.0651  0.6569
11199SOL    HW235039   0.370   1.875   4.293 -1.5284  1.7513 -1.5988
11200SOL     OW35040   3.288   0.211   4.295  0.0521 -0.6378 -0.0415
11200SOL    HW135041   3.229   0.279   4.327 -0.8474 -1.5597  0.2897
11200SOL    HW235042   3.262   0.196   4.204  2.3321  1.6764 -1.2351
11201SOL     OW35043   0.967   2.007   3.042 -0.5562 -0.0767 -0.0320
11201SOL    HW135044   0.922   2.090   3.055 -2.3469 -1.2082  1.5215
11201SOL    HW235045   0.956   1.987   2.950 -2.7626  0.0029  0.1644
11202SOL     OW35046   3.018   7.953  11.458  0.0784  0.2949 -0.6774
11202SOL    HW135047   3.042   7.902  11.536 -0.1268  0.1776 -0.6875
11202SOL    HW235048   3.071   7.916  11.388  0.6299  0.7372 -0.4940
11203SOL     OW35049   3.779   6.204   5.730 -0.3095 -0.2012 -0.0248
11203SOL    HW135050   3.724   6.282   5.722 -2.3082 -1.5610 -0.2496
11203SOL    HW235051   3.775   6.182   5.822 -1.1408 -0.9658 -0.2316
11204SOL     OW35052   3.051   5.142   7.474 -0.1533  0.1803  0.0215
11204SOL    HW135053   3.129   5.094   7.501  1.2471  1.6158 -1.3148
11204SOL    HW235054   3.060   5.229   7.513 -0.7789  0.5505 -0.6287
11205SOL     OW35055   0.664   3.032   0.718 -0.1709 -0.1771 -0.3617
11205SOL    HW135056   0.688   3.030   0.625  0.1837 -0.3398 -0.2679
11205SOL    HW235057   0.664   2.941   0.745  1.0935 -0.0476  0.1375
11206SOL     OW35058   7.555   6.444  10.888 -0.0733 -0.5039  0.0695
11206SOL    HW135059   7.528   6.535  10.900 -0.3217 -0.6165  0.3723
11206SOL    HW235060   7.477   6.392  10.910 -0.6024 -0.7263 -2.0880
11207SOL     OW35061   0.230   4.429   2.255  0.0520  0.9408  0.6141
11207SOL    HW135062   0.219   4.462   2.166  0.2314  0.5961  0.4622
11207SOL    HW235063   0.156   4.466   2.303  0.0869  1.3256  0.3816
11208SOL     OW35064   4.850   2.054   1.061  0.8619  0.2453 -0.5431
11208SOL    HW135065   4.772   2.064   1.116  1.2181  1.7469 -0.2872
11208SOL    HW235066   4.846   1.963   1.032  0.4654 -0.4802  1.6388
11209SOL     OW35067   4.628   3.215  10.262 -0.1040  0.0019  0.0481
11209SOL    HW135068   4.633   3.178  10.174  0.4935 -0.3810  0.2294
11209SOL    HW235069   4.579   3.296  10.252  0.0821  0.0353 -0.6609
11210SOL     OW35070   4.160   4.482  10.957 -0.1280  0.0582  0.5132
11210SOL    HW135071   4.189   4.398  10.993  0.4988  1.0015  2.2924
11210SOL    HW235072   4.152   4.465  10.863 -0.1508 -2.0230  0.8397
11211SOL     OW35073   3.369   0.207  11.766  0.3774 -0.6568 -0.1970
11211SOL    HW135074   3.422   0.199  11.687  1.7811  1.1816  0.4754
11211SOL    HW235075   3.296   0.263  11.740  1.9314  1.7171  0.1959
11212SOL     OW35076   5.254   3.777   5.171  0.1190 -0.2852 -0.1014
11212SOL    HW135077   5.322   3.711   5.157 -1.9836 -3.3073  2.7272
11212SOL    HW235078   5.290   3.834   5.239  0.3262 -1.1338  0.5182
11213SOL     OW35079   0.342   1.772   3.065 -0.2595 -0.0223 -0.2675
11213SOL    HW135080   0.412   1.815   3.017 -1.4591  1.3399 -0.8639
11213SOL    HW235081   0.304   1.711   3.001 -0.4253  0.1756 -0.3613
11214SOL     OW35082   1.130   6.278  11.526 -0.5798 -0.6033 -0.3382
11214SOL    HW135083   1.177   6.320  11.598 -0.4689 -1.8990  0.3608
11214SOL    HW235084   1.059   6.340  11.506 -0.5314 -0.1526  0.7804
11215SOL     OW35085   3.883   6.056   6.440  0.1731 -0.0417  0.4500
11215SOL    HW135086   3.887   6.148   6.412  2.0489  0.1426  1.2078
11215SOL    HW235087   3.936   6.009   6.376 -0.6846 -0.6083  0.1318
11216SOL     OW35088   0.160   6.032   2.224  0.2177 -0.6593 -0.5950
11216SOL    HW135089   0.252   6.045   2.201 -0.0009  0.7340 -0.7753
11216SOL    HW235090   0.149   6.082   2.305 -0.2674 -1.2276 -0.3039
11217SOL     OW35091   4.588   6.025   0.338 -0.3165  0.3766  0.0013
11217SOL    HW135092   4.509   6.053   0.384  0.2122  1.6252  0.2142
11217SOL    HW235093   4.648   5.999   0.408 -0.3096  0.0705 -0.1185
11218SOL     OW35094   0.171   7.727   4.145  0.3986 -0.3767 -0.1463
11218SOL    HW135095   0.114   7.778   4.203  1.2966 -0.3670  0.7526
11218SOL    HW235096   0.111   7.686   4.083 -0.6374 -0.6298  0.9724
11219SOL     OW35097   2.167   6.298   3.748  0.6926  0.2825  0.5894
11219SOL    HW135098   2.167   6.363   3.678  0.2881 -1.4676 -1.1401
11219SOL    HW235099   2.223   6.227   3.715 -0.4825 -1.1249  1.4722
11220SOL     OW35100   4.180   1.305   7.998 -0.5149 -0.4774  0.2479
11220SOL    HW135101   4.110   1.369   7.994  1.3653  1.7384  0.7264
11220SOL    HW235102   4.161   1.244   7.926 -3.5269 -0.7196  1.1445
11221SOL     OW35103   6.431   5.865   0.821  0.1296  0.1219  0.2189
11221SOL    HW135104   6.412   5.839   0.911  2.5817  1.8859  1.3818
11221SOL    HW235105   6.460   5.784   0.778 -0.4832 -0.6263  1.1753
11222SOL     OW35106   6.931   3.692   0.246  0.0348 -0.4018 -0.0632
11222SOL    HW135107   6.927   3.610   0.296 -0.2171  0.5194  1.4963
11222SOL    HW235108   6.996   3.745   0.292 -0.6283  0.6960 -0.3598
11223SOL     OW35109   0.282   1.229  11.787 -0.0996 -0.3270 -0.0287
11223SOL    HW135110   0.334   1.304  11.818  0.6116 -0.4055 -0.9957
11223SOL    HW235111   0.339   1.153  11.799 -0.6112 -0.6492  0.4260
11224SOL     OW35112   6.824   5.824   8.368 -0.7497  0.2533  0.4170
11224SOL    HW135113   6.761   5.829   8.440  0.3475  1.5364  1.3231
11224SOL    HW235114   6.831   5.730   8.349  1.2548 -0.5503  4.1048
11225SOL     OW35115   6.252   6.271   6.316 -0.1948  0.2343  0.5948
11225SOL    HW135116   6.313   6.228   6.256 -1.1424 -0.4212  0.0644
11225SOL    HW235117   6.171   6.281   6.265 -0.9748 -0.2031  1.6969
11226SOL     OW35118   1.218   5.583   5.472 -0.9872  0.1891  0.3723
11226SOL    HW135119   1.284   5.554   5.535 -1.7125  0.0205  1.0549
11226SOL    HW235120   1.143   5.525   5.486 -0.9694 -0.2210 -1.0226
11227SOL     OW35121   5.115   2.833   2.120  0.2732 -0.1638  0.2212
11227SOL    HW135122   5.108   2.759   2.060 -3.3883 -0.3488  0.6279
11227SOL    HW235123   5.139   2.794   2.204  3.3708 -0.1518 -0.5589
11228SOL     OW35124   7.855   2.001   6.085  0.0616  0.0151  0.1428
11228SOL    HW135125   7.917   2.020   6.015 -0.5288  1.4369 -0.0263
11228SOL    HW235126   7.842   2.085   6.129  1.4608 -1.1062  2.8628
11229SOL     OW35127   3.213   0.455   1.376 -0.4536 -0.1483 -0.5455
11229SOL    HW135128   3.222   0.405   1.457 -0.6301  1.2555  0.3802
11229SOL    HW235129   3.195   0.545   1.406 -1.8687  0.1410 -2.1572
11230SOL     OW35130   7.342   1.041   8.408  0.6798  0.2975 -0.6605
11230SOL    HW135131   7.340   1.137   8.408 -0.0634  0.2905 -0.6319
11230SOL    HW235132   7.250   1.015   8.419  1.1165 -0.4059  1.9786
11231SOL     OW35133   2.487   1.172   7.550  0.1292  0.2056 -0.1490
11231SOL    HW135134   2.512   1.195   7.460  1.7132 -1.9694 -0.3413
11231SOL    HW235135   2.546   1.224   7.605  1.5358 -0.9465 -0.4968
11232SOL     OW35136   2.784   6.045   8.782 -0.1313 -0.9639  0.0788
11232SOL    HW135137   2.872   6.016   8.809  0.0963 -2.3680 -1.9479
11232SOL    HW235138   2.732   5.965   8.780 -1.2703 -0.2627  0.4124
11233SOL     OW35139   4.041   7.529   9.567 -0.9377 -0.2144  0.0361
11233SOL    HW135140   3.978   7.478   9.517  0.7758  0.2765 -2.8604
11233SOL    HW235141   4.101   7.464   9.604 -2.0796 -0.5629  1.3686
11234SOL     OW35142   7.102   5.668   8.910 -0.4783  0.1626  0.0224
11234SOL    HW135143   7.189   5.631   8.893  0.4871  2.0860  0.5608
11234SOL    HW235144   7.061   5.675   8.824 -0.3270 -1.2147 -0.1865
11235SOL     OW35145   7.091   2.237   0.541 -0.1113 -0.4500 -0.1507
11235SOL    HW135146   7.176   2.217   0.502  1.0253  1.0884  1.3724
11235SOL    HW235147   7.090   2.332   0.549 -1.9546 -0.4432 -0.0394
11236SOL     OW35148   1.567   1.965  10.958  0.5268 -0.2583 -0.3283
11236SOL    HW135149   1.493   1.961  11.018  0.4124 -0.2465 -0.4675
11236SOL    HW235150   1.634   1.911  10.999  0.1972 -0.8288 -0.5369
11237SOL     OW35151   3.342   5.762   6.666  0.1068 -0.1194  0.6334
11237SOL    HW135152   3.339   5.789   6.574  1.8757 -0.7312  0.3593
11237SOL    HW235153   3.256   5.723   6.682 -0.0941 -0.3735 -0.8899
11238SOL     OW35154   3.505   2.411   9.302 -0.7401  0.1768 -0.3056
11238SOL    HW135155   3.549   2.488   9.264  0.0475 -0.4212 -0.6403
11238SOL    HW235156   3.554   2.393   9.382  0.9647 -1.6853 -1.6738
11239SOL     OW35157   7.261   1.344   0.640 -0.4540  0.1315 -0.1749
11239SOL    HW135158   7.199   1.326   0.711  0.1886  0.6870  0.5599
11239SOL    HW235159   7.346   1.318   0.676 -0.2232 -0.3948 -1.0753
11240SOL     OW35160   0.824   0.114   0.542  0.1886 -0.6579 -0.1807
11240SOL    HW135161   0.853   0.149   0.458  0.6749  1.0913  0.6777
11240SOL    HW235162   0.763   0.044   0.519 -0.8986  0.7907 -1.9916
11241SOL     OW35163   2.333   3.649   5.998 -0.2460  0.1616  0.1051
11241SOL    HW135164   2.262   3.698   6.039  0.0218  1.0494 -0.4628
11241SOL    HW235165   2.301   3.630   5.909 -0.2101 -0.4004  0.2091
11242SOL     OW35166   3.313   1.770   4.286 -0.1801 -0.7113 -0.2983
11242SOL    HW135167   3.347   1.687   4.321  0.7224  0.0105  0.5589
11242SOL    HW235168   3.334   1.767   4.192  1.0058 -0.8880 -0.0361
11243SOL     OW35169   6.515   2.272   2.714 -0.1376  0.4808  0.1381
11243SOL    HW135170   6.580   2.209   2.745 -0.5135 -0.2369 -0.5101
11243SOL    HW235171   6.544   2.298   2.627 -0.1085  1.0349  0.3077
11244SOL     OW35172   4.374   6.457   1.190  0.0896  0.0498 -0.5072
11244SOL    HW135173   4.460   6.430   1.158 -0.2120 -0.0630 -1.2621
11244SOL    HW235174   4.335   6.379   1.228  0.8045  0.3896  0.9860
11245SOL     OW35175   3.287   7.738   2.448  0.0986  0.0641  0.4618
11245SOL    HW135176   3.235   7.672   2.493  1.1584 -0.4548  0.9723
11245SOL    HW235177   3.361   7.753   2.506  0.5182  0.7789 -0.2422
11246SOL     OW35178   2.779   7.511  10.295  0.4998  0.3664  0.0247
11246SOL    HW135179   2.855   7.533  10.242 -0.1624 -1.1285 -1.6298
11246SOL    HW235180   2.704   7.539  10.243 -0.2440 -2.6406 -0.7350
11247SOL     OW35181   1.087   3.419   2.041  0.1291 -1.0776 -0.3974
11247SOL    HW135182   1.178   3.389   2.043  0.8608  0.9950  1.4107
11247SOL    HW235183   1.085   3.488   1.975  0.3224  0.0271  0.7145
11248SOL     OW35184   5.876   2.255   5.127 -0.3448 -0.4222 -0.6011
11248SOL    HW135185   5.817   2.245   5.052  1.4869 -1.9175 -1.9595
11248SOL    HW235186   5.874   2.170   5.170  0.1309 -0.1953 -0.1295
11249SOL     OW35187   0.175   7.908   1.391 -0.2027  0.1200  0.2773
11249SOL    HW135188   0.265   7.938   1.395  0.0906 -0.6115 -0.3549
11249SOL    HW235189   0.124   7.986   1.371  0.3919  0.4111 -0.1458
11250SOL     OW35190   4.235   6.384   6.026 -0.0689 -0.0619 -0.2463
11250SOL    HW135191   4.256   6.360   6.117 -0.3318 -0.4650 -0.2890
11250SOL    HW235192   4.275   6.470   6.014  0.9944 -0.5130 -0.1121
11251SOL     OW35193   7.922   3.855   4.230  0.4222 -0.0129 -0.2547
11251SOL    HW135194   7.933   3.932   4.286 -1.2895  0.2452 -0.1913
11251SOL    HW235195   7.862   3.799   4.279  1.4271 -1.2825 -0.4293
11252SOL     OW35196   5.426   2.432   5.166  0.1105  0.5207  0.2150
11252SOL    HW135197   5.395   2.372   5.097  0.7538 -0.2334  0.5601
11252SOL    HW235198   5.513   2.459   5.136  0.8412 -0.6278  1.1906
11253SOL     OW35199   0.575   7.247   8.173  0.7158 -0.1438  0.1638
11253SOL    HW135200   0.650   7.236   8.114 -0.2420  0.0899 -1.1590
11253SOL    HW235201   0.552   7.340   8.165  0.6510 -0.0815  1.0250
11254SOL     OW35202   2.425   2.161   5.140 -0.4999 -0.4496 -0.3735
11254SOL    HW135203   2.389   2.072   5.141 -0.1577 -0.5944 -0.6052
11254SOL    HW235204   2.502   2.155   5.083 -0.8168  0.1265 -0.8792
11255SOL     OW35205   3.328   1.646   6.682  0.2778  0.2585 -0.2328
11255SOL    HW135206   3.337   1.566   6.734 -0.8808  0.0722 -0.2913
11255SOL    HW235207   3.336   1.617   6.592 -0.1371  0.1972 -0.2539
11256SOL     OW35208   3.309   3.239  12.422 -0.6848  0.0807  0.0802
11256SOL    HW135209   3.244   3.249  12.353  0.2810 -0.5915 -0.9624
11256SOL    HW235210   3.391   3.266  12.381 -0.0241 -0.7274  0.8412
11257SOL     OW35211   2.523   0.895   5.494  0.1908 -0.2655  0.4421
11257SOL    HW135212   2.445   0.912   5.547 -1.2915  1.0804 -1.9799
11257SOL    HW235213   2.567   0.980   5.489  0.3710 -0.3970 -0.3286
11258SOL     OW35214   1.539   6.632   0.269 -0.4159 -0.6711 -0.3883
11258SOL    HW135215   1.532   6.538   0.251  0.6580 -0.8981  0.3120
11258SOL    HW235216   1.607   6.639   0.336  0.5861  0.7232 -1.4773
11259SOL     OW35217   7.580   3.860   4.761 -0.5968  0.2203 -0.8912
11259SOL    HW135218   7.561   3.830   4.849  2.5625 -0.9106 -0.4650
11259SOL    HW235219   7.531   3.941   4.752 -2.3911 -0.5404  1.2106
11260SOL     OW35220   6.615   4.481   2.264  0.3862 -0.2579 -0.6334
11260SOL    HW135221   6.691   4.435   2.300  0.1492 -1.6038 -1.7824
11260SOL    HW235222   6.546   4.465   2.328  1.0148  0.9283  0.3911
11261SOL     OW35223   5.753   5.280   1.903 -0.3458 -0.6251 -0.3851
11261SOL    HW135224   5.845   5.259   1.914 -0.3889 -1.6240 -1.6763
11261SOL    HW235225   5.710   5.196   1.886 -1.7264 -0.3579  1.4042
11262SOL     OW35226   7.706   2.027   0.673  0.6228  0.0054 -0.0637
11262SOL    HW135227   7.653   1.949   0.658 -0.3262  0.9777 -2.1455
11262SOL    HW235228   7.782   1.995   0.722 -0.9728 -1.7462  1.4455
11263SOL     OW35229   2.711   2.794   1.969 -0.0069  0.6176  0.5126
11263SOL    HW135230   2.620   2.781   1.997 -0.3088  0.7318 -0.3963
11263SOL    HW235231   2.705   2.849   1.891  0.8265  0.3727  0.2621
11264SOL     OW35232   6.104   2.092   5.809  0.8860  0.2936 -0.8053
11264SOL    HW135233   6.159   2.167   5.787  0.9032  0.6695  0.4685
11264SOL    HW235234   6.055   2.074   5.728  2.6565  0.1012 -1.8857
11265SOL     OW35235   3.531   6.159   2.577 -0.5947  0.5982  0.4563
11265SOL    HW135236   3.505   6.172   2.486 -0.0006 -0.5884  0.0890
11265SOL    HW235237   3.609   6.214   2.589  0.3575 -0.5319 -0.2924
11266SOL     OW35238   2.648   1.467  12.018 -0.1302  0.5268  0.6094
11266SOL    HW135239   2.560   1.431  12.011  0.1444 -0.2151  0.8026
11266SOL    HW235240   2.702   1.392  12.045  0.5985  0.9143  0.2506
11267SOL     OW35241   7.587   5.059  10.029  0.1733  0.5401 -0.1928
11267SOL    HW135242   7.616   5.061   9.938  0.1248  3.7355 -0.2356
11267SOL    HW235243   7.666   5.041  10.080  0.1021 -1.8305 -0.8254
11268SOL     OW35244   4.250   7.855   6.402 -0.0347  0.3166  0.3514
11268SOL    HW135245   4.293   7.915   6.463 -0.3073  0.7798  0.0894
11268SOL    HW235246   4.204   7.912   6.340 -0.2738 -0.1602  0.0849
11269SOL     OW35247   3.793   0.603  11.776 -0.3797  0.0461  0.3658
11269SOL    HW135248   3.867   0.657  11.804  0.8879 -2.5921  2.7015
11269SOL    HW235249   3.788   0.615  11.682  3.0615  0.4046  0.0891
11270SOL     OW35250   2.627   3.461   7.883 -0.3028 -0.1527 -0.4127
11270SOL    HW135251   2.550   3.507   7.915  0.7504  2.0282 -0.8758
11270SOL    HW235252   2.700   3.500   7.930  0.9513  0.8808 -3.0577
11271SOL     OW35253   7.669   1.427  11.061 -0.3309  0.0183 -0.0171
11271SOL    HW135254   7.639   1.337  11.078  0.3543 -0.3192 -0.5398
11271SOL    HW235255   7.671   1.468  11.148  0.4320 -0.8279  0.3881
11272SOL     OW35256   3.444   5.534   5.367 -0.5250  0.0204 -0.0408
11272SOL    HW135257   3.525   5.575   5.336 -0.1971  0.1418  0.9342
11272SOL    HW235258   3.468   5.443   5.383  0.0652  0.5353  2.3984
11273SOL     OW35259   4.842   6.689   8.865 -0.0208  0.0518 -0.4034
11273SOL    HW135260   4.788   6.626   8.912 -1.0981 -0.4295 -2.1751
11273SOL    HW235261   4.784   6.727   8.799  1.3309  0.8827 -1.1861
11274SOL     OW35262   3.737   3.175  10.883 -0.0123  0.1659 -0.2540
11274SOL    HW135263   3.697   3.109  10.826  0.7873  0.2382 -0.9171
11274SOL    HW235264   3.731   3.136  10.971 -0.7968 -0.1690 -0.4408
11275SOL     OW35265   1.304   4.228   1.325 -0.1530  0.1905  0.2078
11275SOL    HW135266   1.243   4.281   1.274 -0.8976  0.0954  0.9832
11275SOL    HW235267   1.388   4.237   1.279 -0.9953 -0.7141 -1.6435
11276SOL     OW35268   3.218   7.497  11.295 -0.7654  0.4691 -0.0173
11276SOL    HW135269   3.126   7.501  11.323 -0.8866  0.0594 -0.3395
11276SOL    HW235270   3.248   7.411  11.323 -0.7265  0.2719 -0.6440
11277SOL     OW35271   2.089   6.743   8.255 -0.7324  0.1535 -0.1993
11277SOL    HW135272   2.131   6.679   8.313 -1.2161  0.8590  0.9692
11277SOL    HW235273   2.020   6.694   8.211 -0.0965 -0.4917 -0.4957
11278SOL     OW35274   4.198   6.582   5.094  0.5899 -0.4064  0.1027
11278SOL    HW135275   4.252   6.513   5.132  1.0349 -1.3414 -2.0475
11278SOL    HW235276   4.109   6.548   5.100  0.8323 -1.3746 -1.2108
11279SOL     OW35277   5.178   7.904  12.349  0.1729  0.3057  0.3845
11279SOL    HW135278   5.191   7.811  12.328  0.4880  0.4560 -0.0928
11279SOL    HW235279   5.177   7.907  12.445  1.5261 -0.0083  0.4199
11280SOL     OW35280   7.433   3.871   7.549  0.4292  0.0803  0.1698
11280SOL    HW135281   7.446   3.864   7.644 -2.4415 -0.4992  0.6274
11280SOL    HW235282   7.450   3.784   7.515  0.0277 -0.0863  0.3908
11281SOL     OW35283   3.352   5.206   6.951  0.2677 -0.6798 -0.4916
11281SOL    HW135284   3.294   5.163   7.013  0.2343  0.6263  0.4319
11281SOL    HW235285   3.343   5.299   6.972  0.4717 -0.2258 -2.2678
11282SOL     OW35286   1.633   0.296   6.863  0.0493 -0.0137 -0.7672
11282SOL    HW135287   1.629   0.331   6.953  1.4434  1.6240 -1.2845
11282SOL    HW235288   1.556   0.333   6.820  0.3877  0.7768 -0.7269
11283SOL     OW35289   6.746   1.726   4.439 -0.1484 -0.7308  0.5071
11283SOL    HW135290   6.812   1.699   4.374 -0.1749 -1.1580  0.6505
11283SOL    HW235291   6.798   1.764   4.510 -0.1697  0.5633 -0.1321
11284SOL     OW35292   7.158   5.749   6.303 -0.1426  0.5422 -0.0590
11284SOL    HW135293   7.209   5.670   6.287 -0.4053  0.4557 -0.4955
11284SOL    HW235294   7.189   5.811   6.237 -1.0748  0.2564 -0.8075
11285SOL     OW35295   5.089   1.941   4.971  0.1754 -0.1773 -0.2799
11285SOL    HW135296   5.172   1.932   5.018  1.2227  2.1639 -1.4786
11285SOL    HW235297   5.072   1.853   4.937  2.0600 -0.7866  0.1912
11286SOL     OW35298   2.370   7.840   0.833 -0.1775  0.6343  0.4617
11286SOL    HW135299   2.358   7.897   0.909  0.6797  1.4072  0.0273
11286SOL    HW235300   2.314   7.877   0.765 -0.7489  0.0884  0.6202
11287SOL     OW35301   6.818   1.970  10.000 -0.3027  0.2671  0.2566
11287SOL    HW135302   6.865   2.031   9.943 -1.3469  0.1214 -0.8149
11287SOL    HW235303   6.856   1.885   9.981  0.2142  0.3904  0.7275
11288SOL     OW35304   6.999   6.395  11.907  0.5516  0.5855  0.0475
11288SOL    HW135305   6.997   6.385  11.812  1.8975  1.0994 -0.0531
11288SOL    HW235306   6.970   6.310  11.941  1.6895 -0.1846 -0.8234
11289SOL     OW35307   4.414   7.571   7.462  0.1744 -0.4043 -0.0612
11289SOL    HW135308   4.424   7.589   7.369  0.7272 -1.7311 -0.2737
11289SOL    HW235309   4.322   7.544   7.471 -0.3830  1.4496  0.0996
11290SOL     OW35310   7.050   1.356   2.021 -0.3873  0.0704 -0.3586
11290SOL    HW135311   7.079   1.436   1.979 -2.0904  1.4409  0.9070
11290SOL    HW235312   7.036   1.294   1.949  0.1810  1.1603 -1.4361
11291SOL     OW35313   0.970   5.253  12.428  0.0282  0.2994 -0.5311
11291SOL    HW135314   1.027   5.327  12.452 -0.4093  0.5999 -0.4078
11291SOL    HW235315   0.936   5.221  12.511 -2.0364  1.7797 -0.7391
11292SOL     OW35316   2.195   7.158   7.711 -0.3110  0.4215  0.5832
11292SOL    HW135317   2.286   7.129   7.707 -0.3783  0.0548  1.3771
11292SOL    HW235318   2.196   7.229   7.776 -0.4520  1.0224 -0.0510
11293SOL     OW35319   3.371   1.317  10.475  0.4325  0.3501  0.1361
11293SOL    HW135320   3.367   1.238  10.529  0.8371  1.8525  2.5420
11293SOL    HW235321   3.380   1.285  10.386 -1.4655 -2.3076  0.7924
11294SOL     OW35322   6.935   1.334   6.485  0.6565  0.1324 -0.7736
11294SOL    HW135323   6.964   1.415   6.528  0.3812 -0.5455  0.7922
11294SOL    HW235324   6.999   1.268   6.513 -0.1737 -0.5624 -0.4584
11295SOL     OW35325   3.650   2.394   8.908 -0.0120 -0.0704  0.4247
11295SOL    HW135326   3.687   2.312   8.940  1.9045  0.5185 -0.1792
11295SOL    HW235327   3.725   2.451   8.893 -1.0450  0.8321 -1.9095
11296SOL     OW35328   4.806   5.582   3.755  0.3862  0.2693  0.5231
11296SOL    HW135329   4.813   5.649   3.687 -0.1963 -1.0479 -0.9124
11296SOL    HW235330   4.812   5.630   3.837  1.4560  1.8983 -0.4420
11297SOL     OW35331   1.139   1.498   4.573  0.5435  0.1482 -0.4872
11297SOL    HW135332   1.217   1.501   4.518 -0.8800  0.6509 -2.6066
11297SOL    HW235333   1.158   1.430   4.638  2.3147 -0.4911 -1.6104
11298SOL     OW35334   5.176   6.791   3.825  0.0813  0.4038 -0.2611
11298SOL    HW135335   5.130   6.709   3.844  0.7530 -0.7133 -2.9513
11298SOL    HW235336   5.262   6.781   3.867  0.1342 -0.2445 -0.5214
11299SOL     OW35337   4.615   7.338   2.052 -0.3706  0.1540 -0.1364
11299SOL    HW135338   4.625   7.315   2.145 -1.7177 -0.7563 -0.1961
11299SOL    HW235339   4.697   7.310   2.012 -0.9904 -2.4687  0.2400
11300SOL     OW35340   1.007   7.662   4.824 -0.5040 -0.2720 -0.8174
11300SOL    HW135341   0.940   7.613   4.777  0.6576 -1.1366 -1.6358
11300SOL    HW235342   1.090   7.635   4.783  0.2751  1.4695 -0.4760
11301SOL     OW35343   2.265   6.358  10.824 -0.3507  0.2221  0.8148
11301SOL    HW135344   2.329   6.427  10.841  1.7923 -1.4118 -0.1506
11301SOL    HW235345   2.256   6.312  10.907  0.7243 -0.2855  0.6694
11302SOL     OW35346   4.455   2.065   0.158  0.2283 -0.2940  0.1082
11302SOL    HW135347   4.421   2.122   0.227 -1.0156 -2.1562  1.1500
11302SOL    HW235348   4.388   2.067   0.090  1.4684  1.5638 -1.1462
11303SOL     OW35349   7.091   3.463   3.869  0.3547 -0.3176 -0.5609
11303SOL    HW135350   7.040   3.469   3.788 -0.9255  1.5889  0.2966
11303SOL    HW235351   7.029   3.426   3.933 -0.2195  2.3604  0.5876
11304SOL     OW35352   0.900   5.707  12.290 -0.3384 -0.4188 -0.4249
11304SOL    HW135353   0.950   5.673  12.215  1.4338  0.3454  0.3452
11304SOL    HW235354   0.933   5.656  12.365 -0.1408  0.6356  0.2232
11305SOL     OW35355   2.530   3.935   7.451 -0.4858 -0.4091 -0.0189
11305SOL    HW135356   2.580   4.003   7.497  0.3549 -1.4846  0.7186
11305SOL    HW235357   2.461   3.983   7.406  1.4999  1.2395 -1.5376
11306SOL     OW35358   2.583   3.706   6.208 -0.3372  0.3957 -0.0141
11306SOL    HW135359   2.548   3.646   6.142  0.6064 -0.6293  0.3776
11306SOL    HW235360   2.634   3.770   6.158  0.4476 -0.4293 -0.2805
11307SOL     OW35361   0.910   0.743   6.149  0.7849  0.4253 -0.1098
11307SOL    HW135362   0.841   0.809   6.136 -0.8954 -1.1565  0.2954
11307SOL    HW235363   0.885   0.671   6.091  2.0257 -0.2689  0.1848
11308SOL     OW35364   7.465   7.684   1.661  0.0123 -0.1397 -0.2595
11308SOL    HW135365   7.518   7.762   1.645 -0.8035  0.5464  0.2446
11308SOL    HW235366   7.519   7.611   1.632  0.4722  0.6715 -1.5503
11309SOL     OW35367   6.118   6.307   8.869 -0.0675  0.0747 -0.6620
11309SOL    HW135368   6.068   6.381   8.834 -0.4727  0.5028  0.7284
11309SOL    HW235369   6.209   6.333   8.859 -0.1807  0.2499 -1.2555
11310SOL     OW35370   5.279   1.371   8.546 -0.1216 -0.1726 -0.1762
11310SOL    HW135371   5.358   1.318   8.540  0.7695  0.6693  2.6585
11310SOL    HW235372   5.247   1.357   8.636 -2.9045 -0.0418 -1.0422
11311SOL     OW35373   1.195   3.978   8.679 -0.2109  0.1062 -0.3600
11311SOL    HW135374   1.274   3.952   8.630  1.0899  0.9674  1.1783
11311SOL    HW235375   1.191   4.073   8.669 -0.8848  0.1014 -0.1600
11312SOL     OW35376   1.530   0.792   8.616  0.3186  0.0687  0.1425
11312SOL    HW135377   1.476   0.870   8.607  1.3814  0.7485 -0.7107
11312SOL    HW235378   1.469   0.719   8.613 -0.7596  0.8724  1.5282
11313SOL     OW35379   5.037   0.729   2.573 -0.3562  0.2517 -0.0398
11313SOL    HW135380   4.998   0.748   2.658 -0.1644 -1.8108  0.5648
11313SOL    HW235381   5.081   0.645   2.584 -0.6668 -0.2894 -2.2797
11314SOL     OW35382   2.707   2.197   6.782 -0.2913 -0.1246  0.3863
11314SOL    HW135383   2.637   2.162   6.727  0.4251 -1.2738  0.1645
11314SOL    HW235384   2.721   2.286   6.749 -0.6768 -0.3818 -0.5180
11315SOL     OW35385   5.674   2.746   6.231 -0.0844 -0.4123 -0.4768
11315SOL    HW135386   5.765   2.777   6.235 -0.7030  1.4405  0.3190
11315SOL    HW235387   5.665   2.690   6.308  0.1982 -0.0291 -0.1617
11316SOL     OW35388   2.511   6.250   2.940 -0.1176 -0.1522  0.0895
11316SOL    HW135389   2.532   6.172   2.991  1.2633  0.7820  1.0582
11316SOL    HW235390   2.591   6.267   2.890 -0.5735  0.3646 -0.4712
11317SOL     OW35391   1.194   4.951  10.204  0.7806 -0.0503  0.0975
11317SOL    HW135392   1.208   4.993  10.119  2.2798  0.5870  0.6289
11317SOL    HW235393   1.254   4.996  10.263 -0.4051 -0.3253  1.5605
11318SOL     OW35394   1.087   3.823   1.717 -0.4481  0.5782  0.3618
11318SOL    HW135395   1.002   3.866   1.710  0.0427  2.1723  3.0522
11318SOL    HW235396   1.150   3.891   1.693  0.1438 -0.2310 -0.4309
11319SOL     OW35397   2.823   3.314   7.418  0.0267  0.0467  0.1142
11319SOL    HW135398   2.851   3.239   7.367 -0.9323  0.1922 -0.6629
11319SOL    HW235399   2.796   3.277   7.502  1.5603 -0.2023  0.5191
11320SOL     OW35400   6.503   4.152  11.467 -0.1098  0.5183  0.6169
11320SOL    HW135401   6.453   4.121  11.391 -0.5328  1.8229  0.3513
11320SOL    HW235402   6.585   4.185  11.430  0.7868 -1.1473  1.0015
11321SOL     OW35403   0.209   4.207   0.755  0.7802 -0.2907 -0.1854
11321SOL    HW135404   0.234   4.243   0.840 -1.0557  0.1502  0.2096
11321SOL    HW235405   0.274   4.243   0.694  1.5127  0.2167  0.8544
11322SOL     OW35406   1.036   6.179  10.120  0.2837  0.3745 -0.2840
11322SOL    HW135407   1.052   6.264  10.079  1.1961  0.0362 -0.6515
11322SOL    HW235408   0.943   6.181  10.145  0.3006  1.4698 -0.2909
11323SOL     OW35409   0.351   1.506   1.778 -0.0164  0.4425  0.2801
11323SOL    HW135410   0.265   1.465   1.788  0.0950  0.1883  0.2021
11323SOL    HW235411   0.348   1.583   1.835 -0.0803  0.0975  0.7435
11324SOL     OW35412   2.488   6.107  10.271  0.0033 -0.0733 -0.5688
11324SOL    HW135413   2.474   6.014  10.253 -0.8163  0.1858 -1.3276
11324SOL    HW235414   2.400   6.143  10.282  0.3214  0.5837 -0.0784
11325SOL     OW35415   0.939   5.039  10.707 -0.1960  0.0633  0.4737
11325SOL    HW135416   1.015   4.981  10.695 -0.1862  0.2909 -0.6434
11325SOL    HW235417   0.868   4.981  10.731 -0.1664 -0.4151 -0.5550
11326SOL     OW35418   3.162   0.098   7.408  0.4005  0.0962  0.0330
11326SOL    HW135419   3.220   0.142   7.470  0.4713  0.8232 -0.5357
11326SOL    HW235420   3.093   0.161   7.391  0.4682 -0.0396 -0.7551
11327SOL     OW35421   1.821   4.751   6.121  0.0484 -0.1949 -0.1575
11327SOL    HW135422   1.775   4.705   6.191  1.7688 -0.8722  0.5883
11327SOL    HW235423   1.866   4.682   6.072  0.1378  0.4252 -0.9810
11328SOL     OW35424   5.298   1.063   2.098 -0.4695 -0.2308  0.8101
11328SOL    HW135425   5.375   1.098   2.142  0.2606  0.3038 -0.8213
11328SOL    HW235426   5.307   0.968   2.104 -0.0332 -0.1645  1.1977
11329SOL     OW35427   3.692   3.904   0.959 -0.1715 -0.0307 -0.4329
11329SOL    HW135428   3.727   3.915   1.047  1.7405 -0.1243 -1.1424
11329SOL    HW235429   3.640   3.983   0.943  0.3999  0.5128  0.3546
11330SOL     OW35430   1.826   3.815  11.854 -0.0753 -0.0745  0.3755
11330SOL    HW135431   1.849   3.874  11.782  3.0247 -0.3729  1.0071
11330SOL    HW235432   1.791   3.872  11.922 -0.3993  0.5497 -0.2948
11331SOL     OW35433   3.513   3.688   7.820 -0.0780  0.6997 -0.1060
11331SOL    HW135434   3.423   3.657   7.805 -0.4458  0.4690  2.2300
11331SOL    HW235435   3.516   3.772   7.775 -1.2106  0.3385 -0.9140
11332SOL     OW35436   7.235   1.075   3.204  0.1437 -0.0635 -0.4053
11332SOL    HW135437   7.325   1.047   3.220  0.6138  1.1095 -0.8603
11332SOL    HW235438   7.220   1.061   3.111  0.1897  0.6352 -0.5226
11333SOL     OW35439   4.829   1.776   8.919  0.6540  0.3780 -0.3797
11333SOL    HW135440   4.802   1.860   8.882  0.9263  1.7155  2.2081
11333SOL    HW235441   4.901   1.798   8.978 -0.0989 -1.4296  1.3402
11334SOL     OW35442   1.976   6.550   9.614 -0.1104  0.0382 -0.2071
11334SOL    HW135443   2.032   6.581   9.543  0.6104 -1.2133 -0.2235
11334SOL    HW235444   1.922   6.481   9.574 -2.3462  1.7795 -0.4143
11335SOL     OW35445   0.547   4.554   2.906 -0.0851  0.4442  0.6846
11335SOL    HW135446   0.624   4.592   2.947  1.1194 -1.1151 -0.0453
11335SOL    HW235447   0.516   4.621   2.845  0.1951  1.3816  1.5370
11336SOL     OW35448   0.918   2.492   2.717  0.7522 -0.6000 -0.1290
11336SOL    HW135449   0.995   2.439   2.697  1.7103  0.5178  0.4568
11336SOL    HW235450   0.845   2.430   2.717  1.5280 -1.5793 -1.3956
11337SOL     OW35451   4.563   4.376  12.276  0.2361 -0.1109 -0.0346
11337SOL    HW135452   4.654   4.371  12.245 -0.2324  0.0848 -1.5285
11337SOL    HW235453   4.519   4.432  12.211 -0.9750 -0.2791  0.6203
11338SOL     OW35454   3.398   7.696  11.490 -0.3079  0.3794 -0.1066
11338SOL    HW135455   3.452   7.646  11.551 -1.1317  0.2316  0.5080
11338SOL    HW235456   3.341   7.749  11.546 -0.4180  0.9574 -0.7508
11339SOL     OW35457   1.820   3.365   5.584 -0.5366 -0.3885 -0.3030
11339SOL    HW135458   1.861   3.436   5.633 -1.1117  0.9928 -1.7409
11339SOL    HW235459   1.727   3.376   5.599 -0.5677 -1.7800  0.6603
11340SOL     OW35460   7.178   4.981   4.319 -0.1311  0.1504 -0.1075
11340SOL    HW135461   7.131   4.898   4.310 -0.3498  0.2868 -0.2326
11340SOL    HW235462   7.137   5.038   4.254  0.5054  0.1339 -0.5328
11341SOL     OW35463   3.315   0.914  11.729 -0.1130 -0.4645  0.4233
11341SOL    HW135464   3.291   0.825  11.704  0.4878 -0.2475 -1.0379
11341SOL    HW235465   3.403   0.927  11.693 -1.0700  1.4691 -1.4150
11342SOL     OW35466   0.103   4.193   8.724 -0.6420  0.1735 -0.0777
11342SOL    HW135467   0.117   4.174   8.631 -1.5371  1.3319 -0.4645
11342SOL    HW235468   0.191   4.200   8.760 -0.2226  1.6484 -1.2680
11343SOL     OW35469   6.452   7.835   8.045  0.2865  0.2244 -0.3454
11343SOL    HW135470   6.456   7.773   8.118 -1.6751  0.1388 -0.2667
11343SOL    HW235471   6.396   7.792   7.980 -0.2300  1.4522 -0.7357
11344SOL     OW35472   3.664   5.230  12.224 -0.1540 -0.2805 -0.3005
11344SOL    HW135473   3.571   5.249  12.214 -0.2757 -0.5356  0.3201
11344SOL    HW235474   3.700   5.239  12.136 -0.5961  0.7076 -0.3956
11345SOL     OW35475   7.205   1.556  11.893  0.3556  0.1726  0.6027
11345SOL    HW135476   7.112   1.569  11.875 -0.0186 -0.3770  2.0129
11345SOL    HW235477   7.217   1.461  11.891  0.9629  0.2555  0.0965
11346SOL     OW35478   1.015   5.710   8.831 -0.3909  0.1198 -0.5179
11346SOL    HW135479   0.954   5.779   8.856 -1.0341 -0.3466 -0.7672
11346SOL    HW235480   1.042   5.732   8.742 -0.8614 -0.1337 -0.7238
11347SOL     OW35481   3.237   3.340   7.812 -0.6063  0.1658  1.1144
11347SOL    HW135482   3.243   3.396   7.890  0.0316  0.6619  0.7155
11347SOL    HW235483   3.158   3.369   7.767 -0.0076  1.0894  0.6480
11348SOL     OW35484   1.133   4.926   7.368 -0.1631  0.1582  0.2029
11348SOL    HW135485   1.087   5.005   7.340  0.4781 -0.0582 -1.5390
11348SOL    HW235486   1.208   4.958   7.417 -0.1593  0.6112 -0.0953
11349SOL     OW35487   4.358   4.652  12.379 -0.1682  0.0705 -0.2277
11349SOL    HW135488   4.336   4.672  12.288 -1.5358 -3.7226 -0.9207
11349SOL    HW235489   4.282   4.681  12.429 -0.4790 -0.0120 -0.6477
11350SOL     OW35490   2.887   2.977   4.368 -0.5920 -0.1309  0.1890
11350SOL    HW135491   2.944   3.026   4.427 -0.0607 -2.5024  1.7973
11350SOL    HW235492   2.942   2.956   4.293 -0.3396  0.3512  0.2354
11351SOL     OW35493   5.754   2.810   3.537 -0.1987 -0.0054 -0.1180
11351SOL    HW135494   5.663   2.805   3.507  0.1163 -0.7381 -1.0169
11351SOL    HW235495   5.755   2.881   3.601 -0.9750  1.5133 -1.7068
11352SOL     OW35496   6.253   2.277   0.386 -0.1070  0.5537 -0.4365
11352SOL    HW135497   6.328   2.309   0.437 -0.5095  2.2108 -0.8108
11352SOL    HW235498   6.213   2.210   0.441  0.9294  0.5019  0.2960
11353SOL     OW35499   1.699   0.891   9.563 -0.3155  0.2647  0.5659
11353SOL    HW135500   1.641   0.832   9.515  1.6992 -0.5816 -0.9412
11353SOL    HW235501   1.715   0.847   9.646  0.9677 -1.2620 -0.4445
11354SOL     OW35502   4.416   7.322   8.479 -0.5952  0.3648 -0.4888
11354SOL    HW135503   4.330   7.362   8.472 -1.0933 -0.8093 -1.5615
11354SOL    HW235504   4.413   7.247   8.419  1.2963  0.5105 -0.8511
11355SOL     OW35505   6.503   3.080   8.178  0.0398 -0.0452  0.1865
11355SOL    HW135506   6.495   3.169   8.142  1.5943  0.1052  0.1437
11355SOL    HW235507   6.503   3.023   8.102  1.2634  0.1172  0.0356
11356SOL     OW35508   7.600   1.363   0.911 -0.1114  0.1628 -0.1098
11356SOL    HW135509   7.614   1.314   0.830 -0.0230  1.2282 -0.7619
11356SOL    HW235510   7.682   1.355   0.958 -1.6268 -4.7381  2.3774
11357SOL     OW35511   0.653   5.521  10.586  0.1474 -0.2650  0.0135
11357SOL    HW135512   0.689   5.452  10.641 -1.0112  0.1370  1.3135
11357SOL    HW235513   0.715   5.593  10.594  0.0599 -0.2634  0.6795
11358SOL     OW35514   3.228   2.484   3.432  0.4494  0.4149 -0.2105
11358SOL    HW135515   3.305   2.510   3.381  0.6582 -1.2816 -0.8197
11358SOL    HW235516   3.162   2.550   3.412  1.4865  1.4687 -0.2789
11359SOL     OW35517   7.505   6.065   7.130 -0.1270  0.3023 -0.2607
11359SOL    HW135518   7.584   6.022   7.098  1.4999  0.2697  3.2480
11359SOL    HW235519   7.538   6.138   7.183 -2.5068  0.9419  0.4657
11360SOL     OW35520   7.889   5.287   8.918 -0.0393 -0.0905  0.4469
11360SOL    HW135521   7.983   5.301   8.920  0.1454 -0.8785 -1.1606
11360SOL    HW235522   7.868   5.253   9.004  1.1036  0.3208  0.9041
11361SOL     OW35523   5.888   6.211  11.863 -0.1680 -0.3781  0.3456
11361SOL    HW135524   5.820   6.260  11.816  0.3278  0.0675  0.0823
11361SOL    HW235525   5.960   6.274  11.872 -0.2009 -0.4800  1.5934
11362SOL     OW35526   0.660   1.685   2.286  0.4122  0.6306  0.5133
11362SOL    HW135527   0.740   1.696   2.337  0.9855 -1.3257  0.1321
11362SOL    HW235528   0.643   1.591   2.290  0.1525  0.4721 -2.3753
11363SOL     OW35529   5.324   2.721   9.779 -0.0891  0.2537 -0.1438
11363SOL    HW135530   5.307   2.632   9.810 -0.3598  0.3739  0.0534
11363SOL    HW235531   5.391   2.710   9.711  2.7245  0.2218  2.3849
11364SOL     OW35532   7.089   3.537   2.176 -0.0623  0.0103 -0.1392
11364SOL    HW135533   7.103   3.487   2.095 -1.5922 -1.5573  0.4991
11364SOL    HW235534   6.999   3.516   2.202  1.0230 -1.2412  3.0906
11365SOL     OW35535   0.252   1.230   3.088  0.5067  0.3303  0.1904
11365SOL    HW135536   0.309   1.290   3.039  1.1373 -0.1451  0.3401
11365SOL    HW235537   0.299   1.212   3.169  0.0499  0.0895  0.4051
11366SOL     OW35538   6.150   0.064   5.721  0.4852  0.0759 -0.3158
11366SOL    HW135539   6.191   0.114   5.792 -1.9829  1.3078  0.3573
11366SOL    HW235540   6.108  -0.010   5.765 -2.0107  1.4477 -0.2213
11367SOL     OW35541   0.795   0.995   1.495 -0.0051 -0.4518  0.4437
11367SOL    HW135542   0.859   0.933   1.531  1.5087  0.7537 -0.0487
11367SOL    HW235543   0.816   0.998   1.402 -0.4142  0.3721  0.3720
11368SOL     OW35544   3.862   4.321   9.620  0.3895 -0.1443 -0.9641
11368SOL    HW135545   3.865   4.229   9.647  2.6466  0.0676 -0.3300
11368SOL    HW235546   3.893   4.320   9.530  2.9171  0.1838 -0.1768
11369SOL     OW35547   1.303   0.177   2.290 -0.2296 -0.3134  0.1120
11369SOL    HW135548   1.346   0.092   2.298 -2.2964 -1.5727 -1.2600
11369SOL    HW235549   1.263   0.192   2.376 -0.4990 -1.1281  0.1349
11370SOL     OW35550   7.041   5.489  11.934  0.4260  0.5897  0.0173
11370SOL    HW135551   7.042   5.573  11.887 -1.9652 -0.5936 -2.4273
11370SOL    HW235552   6.976   5.500  12.002 -0.3836  0.5527 -0.7347
11371SOL     OW35553   0.398   7.255   3.620  0.3176 -0.0461 -0.6768
11371SOL    HW135554   0.327   7.195   3.595  0.8514 -1.3239  0.7257
11371SOL    HW235555   0.359   7.310   3.689  0.8647 -1.3230  0.7199
11372SOL     OW35556   0.170   6.185   8.115  0.9959 -0.5852 -0.6981
11372SOL    HW135557   0.189   6.277   8.097  0.1081 -0.2793 -0.1008
11372SOL    HW235558   0.118   6.186   8.195 -1.2918 -1.4010 -2.0901
11373SOL     OW35559   7.752   5.538   4.348 -0.3969  0.5418  0.0477
11373SOL    HW135560   7.822   5.518   4.410  1.8224 -0.9230 -2.7005
11373SOL    HW235561   7.783   5.614   4.300 -1.5921  1.0107 -0.0261
11374SOL     OW35562   1.793   3.279   1.019 -0.7041  0.4756 -0.0159
11374SOL    HW135563   1.858   3.296   0.951 -2.2677  1.4031 -1.3351
11374SOL    HW235564   1.776   3.185   1.012 -0.8906  0.5736 -0.9555
11375SOL     OW35565   3.094   0.924   3.808 -0.2947 -0.3115 -0.5215
11375SOL    HW135566   3.018   0.868   3.827 -0.4803 -0.0861 -0.5909
11375SOL    HW235567   3.056   1.003   3.768 -0.0193 -0.2182 -0.6012
11376SOL     OW35568   1.724   0.404  11.390 -0.3148 -0.2433  0.2819
11376SOL    HW135569   1.796   0.350  11.422 -0.2156  0.5979  1.5463
11376SOL    HW235570   1.651   0.343  11.380  0.3973 -1.0057 -0.5096
11377SOL     OW35571   2.211   6.656   9.523  0.3008  0.0596 -0.1638
11377SOL    HW135572   2.281   6.591   9.521  0.7280  0.5315 -0.9136
11377SOL    HW235573   2.204   6.688   9.433  0.5509  1.5302  0.3028
11378SOL     OW35574   1.527   1.452   0.051 -0.2738 -0.3696 -0.2166
11378SOL    HW135575   1.613   1.494   0.050 -0.6443  0.4264  0.2285
11378SOL    HW235576   1.471   1.509  -0.001 -0.6618 -0.5978 -0.0588
11379SOL     OW35577   7.638   6.439   1.069 -0.3344  0.7849 -0.0242
11379SOL    HW135578   7.566   6.385   1.037  0.4622  1.5731 -3.6646
11379SOL    HW235579   7.717   6.399   1.031  0.7445  2.0169  0.8012
11380SOL     OW35580   6.484   0.463   0.467 -1.2221  0.2782  0.7374
11380SOL    HW135581   6.417   0.395   0.459 -1.2514  0.4957 -1.9897
11380SOL    HW235582   6.563   0.424   0.430 -0.5372  0.8722  1.5525
11381SOL     OW35583   2.409   0.068   7.192  0.4271 -0.0875 -0.4813
11381SOL    HW135584   2.478   0.010   7.224  0.7137  0.7985  0.5330
11381SOL    HW235585   2.453   0.150   7.172  0.2485 -0.5539 -3.1236
11382SOL     OW35586   7.546   4.397   7.433 -0.5510 -0.3031 -0.1988
11382SOL    HW135587   7.509   4.309   7.429 -0.9332 -0.1055 -1.1487
11382SOL    HW235588   7.599   4.397   7.513 -1.7118 -0.9311  0.5965
11383SOL     OW35589   0.368   1.717   1.927  0.2152 -0.3816 -0.0365
11383SOL    HW135590   0.325   1.738   2.010 -1.3851 -2.3199 -0.3079
11383SOL    HW235591   0.460   1.704   1.950  0.0217  0.2556  1.1975
11384SOL     OW35592   4.079   6.596   0.063 -0.4001 -0.3175  0.4157
11384SOL    HW135593   4.087   6.691   0.073  1.8877 -0.2817 -0.9111
11384SOL    HW235594   4.126   6.560   0.138  0.1417 -0.3639  0.0569
11385SOL     OW35595   1.269   7.335   3.120  0.2520  0.1438  1.0001
11385SOL    HW135596   1.358   7.367   3.134  0.2727  0.6210 -0.1084
11385SOL    HW235597   1.215   7.384   3.182  0.1226  3.2133 -1.3192
11386SOL     OW35598   5.020   0.201   9.314 -0.0747  0.5046 -0.1259
11386SOL    HW135599   5.040   0.142   9.386 -1.4172  0.6444  0.3957
11386SOL    HW235600   5.021   0.289   9.353  0.7217  0.7295 -0.6281
11387SOL     OW35601   1.358   4.118  12.127 -0.4004 -0.1636  0.0873
11387SOL    HW135602   1.356   4.030  12.090 -0.4126 -1.2721  2.5203
11387SOL    HW235603   1.306   4.111  12.207 -0.3379  2.0530  0.3798
11388SOL     OW35604   3.093   1.846  10.242  0.3575 -0.3601  0.5539
11388SOL    HW135605   3.093   1.846  10.146  0.6894 -0.9265  0.5495
11388SOL    HW235606   3.005   1.816  10.266  0.2589 -0.1728  0.4323
11389SOL     OW35607   5.348   2.281   9.432  0.1500  0.6950 -0.4766
11389SOL    HW135608   5.278   2.327   9.386  0.4239  1.8379  0.2099
11389SOL    HW235609   5.396   2.236   9.363  0.3815  2.1362 -1.2969
11390SOL     OW35610   4.314   2.001  10.812 -0.4353 -0.3825 -0.0820
11390SOL    HW135611   4.233   1.958  10.839  1.0538 -2.5423  1.3025
11390SOL    HW235612   4.339   1.955  10.731 -0.5105  0.1630 -0.4162
11391SOL     OW35613   4.194   2.423   7.056 -0.5955 -0.4205 -0.2466
11391SOL    HW135614   4.110   2.458   7.085 -0.6664 -0.5289 -0.3214
11391SOL    HW235615   4.214   2.353   7.117 -0.0654  0.2637  0.3945
11392SOL     OW35616   2.196   7.290  10.586  0.8712 -0.0189 -0.7233
11392SOL    HW135617   2.189   7.260  10.495 -2.5876  1.1888 -1.0100
11392SOL    HW235618   2.157   7.377  10.585  2.9998  1.0586  1.5527
11393SOL     OW35619   2.305   1.536   9.610 -0.3060  0.0796  0.4769
11393SOL    HW135620   2.219   1.494   9.607 -0.7645  0.5818  3.3521
11393SOL    HW235621   2.367   1.465   9.627 -0.1558 -0.2292 -1.2094
11394SOL     OW35622   6.684   2.751   6.765 -0.3628 -0.4172 -0.1036
11394SOL    HW135623   6.645   2.760   6.852 -1.0644  0.6480 -0.5148
11394SOL    HW235624   6.776   2.729   6.782 -0.3194  0.5157  0.9121
11395SOL     OW35625   4.562   2.637   8.055  0.0236 -0.7910 -0.0877
11395SOL    HW135626   4.599   2.697   7.991 -0.3041  1.1522  1.4819
11395SOL    HW235627   4.635   2.614   8.112 -0.5764  1.1781  1.5809
11396SOL     OW35628   2.766   6.848   0.049 -0.0793  0.3604  0.2271
11396SOL    HW135629   2.785   6.762   0.012 -1.9556  0.3951 -0.9380
11396SOL    HW235630   2.845   6.871   0.097  0.4137 -2.0709  0.7082
11397SOL     OW35631   1.905   4.115   1.644 -0.0358 -0.3349 -0.4902
11397SOL    HW135632   1.919   4.204   1.611  0.3708 -0.7765 -1.5566
11397SOL    HW235633   1.989   4.071   1.631  0.2516 -0.4631  1.4658
11398SOL     OW35634   3.969   6.772  11.276  0.1327  0.1836  0.1673
11398SOL    HW135635   4.024   6.752  11.352  1.3493 -0.5589 -0.8650
11398SOL    HW235636   3.946   6.686  11.240 -0.3114  0.5347 -0.3917
11399SOL     OW35637   7.821   7.696  10.758  0.4682  0.0530  0.3658
11399SOL    HW135638   7.819   7.689  10.662  3.3460  1.1187  0.1319
11399SOL    HW235639   7.882   7.628  10.786 -4.4167 -4.2377  2.2069
11400SOL     OW35640   7.366   0.926  10.826 -0.1120 -0.7917  0.7991
11400SOL    HW135641   7.296   0.990  10.841  0.5826  1.0179 -2.5605
11400SOL    HW235642   7.325   0.857  10.773  0.4977  0.2595 -1.1554
11401SOL     OW35643   5.988   0.172   9.674  0.1366  0.7546  0.7378
11401SOL    HW135644   6.029   0.166   9.587  0.7814 -1.1218  1.1263
11401SOL    HW235645   6.049   0.225   9.725  1.5237 -0.9669  0.9576
11402SOL     OW35646   4.807   3.574  10.905  0.2051 -0.2536 -0.1407
11402SOL    HW135647   4.787   3.524  10.826 -0.2388  0.4092 -0.4562
11402SOL    HW235648   4.881   3.630  10.880 -0.7142  0.8561 -0.4913
11403SOL     OW35649   4.491   5.227   6.854 -0.1142 -0.5840 -0.0109
11403SOL    HW135650   4.460   5.162   6.792 -1.3963  0.0190 -0.0512
11403SOL    HW235651   4.411   5.262   6.894  0.5720  0.4539  0.5179
11404SOL     OW35652   1.197   2.549   0.836 -0.2988  0.8816  0.1340
11404SOL    HW135653   1.197   2.624   0.776 -0.5034  0.9917  0.2686
11404SOL    HW235654   1.287   2.542   0.866 -0.0734  0.4868 -0.6081
11405SOL     OW35655   2.437   3.492   8.184  0.4326  0.1547 -0.3758
11405SOL    HW135656   2.428   3.508   8.090  1.4630 -0.7407 -0.6353
11405SOL    HW235657   2.460   3.578   8.220  0.0656  0.4986 -0.9317
11406SOL     OW35658   1.832   3.827   1.362 -0.1479 -0.2172  0.4784
11406SOL    HW135659   1.885   3.803   1.286  0.3598  1.1183  0.3878
11406SOL    HW235660   1.766   3.887   1.327 -0.0474  0.2396  1.0579
11407SOL     OW35661   5.472   7.754   9.231 -0.0029 -0.4731 -0.1944
11407SOL    HW135662   5.409   7.825   9.216  1.3303  0.6093 -0.8964
11407SOL    HW235663   5.475   7.744   9.326 -1.5093 -0.8227 -0.1578
11408SOL     OW35664   5.007   0.808   8.632  0.2925 -0.2371  0.0776
11408SOL    HW135665   4.995   0.733   8.573  0.0649  0.0360 -0.2273
11408SOL    HW235666   5.089   0.848   8.602  0.4120 -0.3561  0.2380
11409SOL     OW35667   2.335   3.001   3.621  0.3265  0.7649  0.3926
11409SOL    HW135668   2.290   2.946   3.557  1.4873 -0.4710  0.5932
11409SOL    HW235669   2.408   3.040   3.573  0.4888  0.7940  0.6558
11410SOL     OW35670   6.982   3.747   3.818  0.0954 -0.2362  0.1055
11410SOL    HW135671   7.075   3.744   3.793 -0.1411 -2.4573 -0.7258
11410SOL    HW235672   6.980   3.715   3.908 -0.0587 -2.7912 -0.7416
11411SOL     OW35673   6.302   6.521   5.179 -0.4856  0.7004  0.4247
11411SOL    HW135674   6.215   6.551   5.152 -0.6169 -0.0489 -0.0256
11411SOL    HW235675   6.358   6.598   5.172 -1.2018  1.3071  1.1541
11412SOL     OW35676   3.372   2.590   2.703 -0.3362  0.8412  0.2151
11412SOL    HW135677   3.399   2.535   2.630  1.0870  1.3759  0.3111
11412SOL    HW235678   3.323   2.662   2.662  0.6185  1.2394 -0.2424
11413SOL     OW35679   0.420   6.786   9.250  0.0889  0.2249  0.2184
11413SOL    HW135680   0.505   6.794   9.294  0.9259  0.5854 -1.4012
11413SOL    HW235681   0.436   6.724   9.179 -0.8728  0.7052 -0.4249
11414SOL     OW35682   0.595   3.493   9.939 -0.5114 -0.0966  0.1173
11414SOL    HW135683   0.625   3.580   9.968 -1.9253  0.6383 -0.5343
11414SOL    HW235684   0.582   3.444  10.020  1.0445  0.0256  0.4683
11415SOL     OW35685   4.678   5.077   0.385 -0.3179  0.3102  0.0834
11415SOL    HW135686   4.592   5.113   0.405  0.5101  2.5617 -0.1343
11415SOL    HW235687   4.685   5.000   0.442 -2.1713  0.4826  0.6238
11416SOL     OW35688   2.794   2.089   6.117 -0.7371 -0.0502 -0.0766
11416SOL    HW135689   2.771   2.180   6.100  0.4251  0.0539 -1.2765
11416SOL    HW235690   2.831   2.058   6.035 -0.0322 -1.2448  0.6607
11417SOL     OW35691   2.749   7.556   3.211  0.2607 -0.0679 -0.3184
11417SOL    HW135692   2.733   7.556   3.305  0.6301  0.4933 -0.2510
11417SOL    HW235693   2.803   7.479   3.196  2.0601  1.0232  0.2729
11418SOL     OW35694   6.654   5.744  11.364 -0.2256  0.4390 -0.2344
11418SOL    HW135695   6.692   5.695  11.290 -0.4882  0.4213 -0.3623
11418SOL    HW235696   6.638   5.831  11.329 -1.5843  0.0732 -0.6271
11419SOL     OW35697   0.934   7.586  11.317  0.0445  0.0297 -0.3633
11419SOL    HW135698   1.019   7.565  11.356 -0.6707  1.3114  2.0512
11419SOL    HW235699   0.936   7.681  11.305 -0.6061 -0.0739 -1.4961
11420SOL     OW35700   4.101   6.033   7.530  0.0305  0.1692  0.4077
11420SOL    HW135701   4.187   6.054   7.566 -0.0217 -0.0450  0.6553
11420SOL    HW235702   4.039   6.062   7.597 -0.0574 -0.4560  0.6027
11421SOL     OW35703   7.929   3.368   5.049 -0.1414 -0.6564 -0.0555
11421SOL    HW135704   7.888   3.425   5.114  2.8905 -1.2420  2.6624
11421SOL    HW235705   7.924   3.281   5.088  2.2925 -0.9344 -0.2067
11422SOL     OW35706   7.921   4.820   4.196  0.0971 -0.3828 -0.4804
11422SOL    HW135707   7.999   4.823   4.253 -1.0839  0.3650  1.1961
11422SOL    HW235708   7.876   4.902   4.214 -1.4857 -1.1505 -0.8230
11423SOL     OW35709   0.205   4.714   5.957 -0.1928 -0.4465 -0.2351
11423SOL    HW135710   0.129   4.749   6.003 -0.4647  1.2538 -1.8694
11423SOL    HW235711   0.280   4.756   5.999 -0.2954 -0.5262  0.0265
11424SOL     OW35712   6.617   3.110   1.973  0.8549  0.2584 -0.3789
11424SOL    HW135713   6.533   3.088   2.013 -0.2306  1.5010 -1.8245
11424SOL    HW235714   6.644   3.030   1.928 -1.8019  0.8951 -3.5286
11425SOL     OW35715   5.353   4.588   3.747  0.2869 -0.4354  0.3798
11425SOL    HW135716   5.281   4.604   3.808  0.9884  1.3493  0.8196
11425SOL    HW235717   5.327   4.635   3.667  1.0835  0.5415  0.6680
11426SOL     OW35718   6.135   5.047   2.722  0.1115 -0.1091  0.2263
11426SOL    HW135719   6.140   5.135   2.760 -1.1085  0.6766 -1.3157
11426SOL    HW235720   6.056   5.009   2.760 -1.1983  0.7374 -1.5446
11427SOL     OW35721   2.312   5.108   6.915 -0.1365  0.1610 -0.2211
11427SOL    HW135722   2.298   5.048   6.988 -0.5699  0.8100  0.2412
11427SOL    HW235723   2.342   5.189   6.956  0.2414  0.3320 -0.8173
11428SOL     OW35724   6.375   4.004   8.457  0.7976  0.1685  0.1078
11428SOL    HW135725   6.296   3.953   8.476  0.9542  0.4049  1.5150
11428SOL    HW235726   6.383   4.064   8.531  1.9399  0.6011 -0.3427
11429SOL     OW35727   0.659   5.609   9.069 -0.4682 -0.0927 -0.1595
11429SOL    HW135728   0.616   5.690   9.099  1.3598  0.3450  1.5254
11429SOL    HW235729   0.677   5.561   9.150  1.2707 -0.6996 -0.8646
11430SOL     OW35730   2.390   3.378  11.978  0.1237  0.2561  0.1571
11430SOL    HW135731   2.327   3.308  11.962 -1.2031  1.2342  0.9991
11430SOL    HW235732   2.434   3.390  11.894 -0.8091 -0.4373 -0.4442
11431SOL     OW35733   4.379   6.082   4.315 -0.3587  0.1790  0.7220
11431SOL    HW135734   4.347   6.141   4.248 -2.9303 -1.7154  0.1455
11431SOL    HW235735   4.372   5.995   4.276  0.4734 -0.7740  2.5641
11432SOL     OW35736   0.492   0.821   4.708 -0.6065  0.1720  0.3891
11432SOL    HW135737   0.469   0.781   4.624  0.8227 -1.5053  0.7274
11432SOL    HW235738   0.553   0.892   4.685  0.2788 -0.6838  0.0168
11433SOL     OW35739   1.666   5.456   1.904 -0.0616 -0.1914  0.1527
11433SOL    HW135740   1.713   5.466   1.821  1.2692  0.4595  0.9456
11433SOL    HW235741   1.587   5.407   1.882  1.0666 -1.4553 -1.2054
11434SOL     OW35742   3.776   0.103   7.249  0.5510  0.4814 -0.0857
11434SOL    HW135743   3.800   0.030   7.305 -0.4566 -0.9964 -1.4779
11434SOL    HW235744   3.821   0.086   7.166 -3.2858 -1.3037 -2.0860
11435SOL     OW35745   0.138   2.813   2.425 -0.0477 -0.5436  0.0043
11435SOL    HW135746   0.202   2.835   2.357  1.3360  2.8579  2.1768
11435SOL    HW235747   0.069   2.879   2.415  0.0938 -0.0937  1.7228
11436SOL     OW35748   0.004   4.537   2.412  0.5281  0.1229 -0.7584
11436SOL    HW135749  -0.038   4.623   2.414 -0.3026 -0.2792 -0.7535
11436SOL    HW235750  -0.047   4.484   2.474  2.2939  0.1871  0.8562
11437SOL     OW35751   4.866   2.941   2.048  0.8400  0.2336 -0.3367
11437SOL    HW135752   4.949   2.915   2.088  0.7610 -1.1733 -1.0375
11437SOL    HW235753   4.828   2.859   2.016 -1.5223  0.6108  1.2430
11438SOL     OW35754   7.835   2.171   4.413  0.1646 -0.4224  1.0934
11438SOL    HW135755   7.780   2.239   4.452  0.0970  0.0921  0.1376
11438SOL    HW235756   7.909   2.162   4.472 -1.0256 -1.2745  2.5262
11439SOL     OW35757   1.551   7.904   2.850 -0.2052 -0.1944 -0.0709
11439SOL    HW135758   1.641   7.884   2.823 -0.7033 -1.0758 -1.1432
11439SOL    HW235759   1.557   7.992   2.886  0.9528  0.0971 -0.8881
11440SOL     OW35760   1.200   7.658   6.972 -0.3516  0.1198  0.1353
11440SOL    HW135761   1.107   7.638   6.966 -0.5356  1.1609 -1.0173
11440SOL    HW235762   1.236   7.628   6.889  0.0299  1.1427 -0.0862
11441SOL     OW35763   1.344   1.862   1.585  0.2822  1.0325  0.6578
11441SOL    HW135764   1.424   1.810   1.592 -0.2032  0.1031 -0.3337
11441SOL    HW235765   1.296   1.843   1.666 -0.1242 -0.5294  0.0980
11442SOL     OW35766   6.537   6.325   5.246  0.0585 -0.4042  0.0367
11442SOL    HW135767   6.546   6.354   5.337  1.0211  0.1329 -0.2225
11442SOL    HW235768   6.470   6.384   5.209 -0.9740 -1.1783  0.6104
11443SOL     OW35769   6.593   2.317   0.227  0.5483 -0.1556 -0.6290
11443SOL    HW135770   6.675   2.327   0.178  0.6387 -0.1573 -0.4783
11443SOL    HW235771   6.528   2.299   0.160  1.0455 -2.4472 -0.5705
11444SOL     OW35772   4.320   7.001  10.189 -0.2074 -0.4267 -0.2060
11444SOL    HW135773   4.292   6.921  10.144  0.0344 -2.6162  3.1424
11444SOL    HW235774   4.252   7.015  10.255  1.5629 -0.0486  1.6054
11445SOL     OW35775   6.918   4.291   8.398  0.2506 -0.3113 -0.1074
11445SOL    HW135776   6.919   4.267   8.490  0.0463 -1.0316 -0.2852
11445SOL    HW235777   6.828   4.275   8.369  0.1093  0.6617 -0.2489
11446SOL     OW35778   1.225   2.204   7.460 -0.3734 -0.0811  0.0910
11446SOL    HW135779   1.299   2.163   7.416  0.6272  2.9786 -1.2908
11446SOL    HW235780   1.192   2.268   7.397 -1.9826  1.0890  2.0125
11447SOL     OW35781   7.272   5.388   1.302  0.0310 -0.2231  0.4010
11447SOL    HW135782   7.231   5.457   1.353  0.9352  0.2424  0.5138
11447SOL    HW235783   7.304   5.431   1.223 -1.0446 -0.8722 -0.4329
11448SOL     OW35784   1.148   4.088  12.375 -0.0084 -0.4066 -0.3600
11448SOL    HW135785   1.084   4.126  12.436 -0.4534  1.1319 -1.7135
11448SOL    HW235786   1.232   4.094  12.422 -0.5837 -0.8464  0.7566
11449SOL     OW35787   5.539   0.876   0.270 -0.3419 -0.2526 -0.1983
11449SOL    HW135788   5.625   0.913   0.250 -1.0226  2.1332  0.8620
11449SOL    HW235789   5.546   0.784   0.245  1.7813  0.3504 -2.2198
11450SOL     OW35790   6.984   1.337   9.181 -0.7823 -0.6955  0.0628
11450SOL    HW135791   6.947   1.256   9.145  0.2310 -0.9636 -0.4350
11450SOL    HW235792   7.012   1.386   9.104 -0.8845 -0.1183  0.3896
11451SOL     OW35793   2.637   3.309   5.075  0.3601  0.2389  0.2132
11451SOL    HW135794   2.677   3.223   5.093 -0.1151 -0.1951 -0.7512
11451SOL    HW235795   2.649   3.322   4.981  0.8676  1.4692  0.4293
11452SOL     OW35796   6.892   0.106  10.074  0.6760  0.1684  0.2371
11452SOL    HW135797   6.836   0.054  10.131  0.2072  0.0894 -0.2916
11452SOL    HW235798   6.971   0.122  10.126  0.0655  0.4971  1.0756
11453SOL     OW35799   6.862   6.023   0.102  0.0917  0.5611 -0.1022
11453SOL    HW135800   6.804   6.051   0.173 -0.0338 -0.7174  0.3202
11453SOL    HW235801   6.941   6.076   0.114 -0.7133  1.8507 -0.2839
11454SOL     OW35802   6.790   2.348   0.034  0.3631  0.1306 -0.1325
11454SOL    HW135803   6.724   2.386  -0.024 -0.4118 -2.3943 -1.0485
11454SOL    HW235804   6.790   2.255   0.012  2.5043 -0.3563  1.5857
11455SOL     OW35805   0.662   7.069   8.544  0.5121 -0.2230 -0.1479
11455SOL    HW135806   0.592   7.093   8.604  0.9365  2.6535 -0.6721
11455SOL    HW235807   0.742   7.083   8.594  0.8027 -1.5419 -0.2070
11456SOL     OW35808   5.205   7.303   2.250  0.1037  0.4887  0.3121
11456SOL    HW135809   5.186   7.276   2.340  0.1275  0.4733  0.3127
11456SOL    HW235810   5.158   7.386   2.240 -0.4858  0.1411  0.1111
11457SOL     OW35811   7.404   5.352  10.303 -0.1896  0.1310  0.0358
11457SOL    HW135812   7.476   5.384  10.357  0.5327  0.3843 -1.0458
11457SOL    HW235813   7.430   5.262  10.279  0.5785  0.7463 -1.6489
11458SOL     OW35814   4.530   5.739  12.005  0.4118 -0.0885 -0.1103
11458SOL    HW135815   4.484   5.821  12.025 -0.3442 -0.0782 -1.7731
11458SOL    HW235816   4.623   5.764  12.005  0.2753  0.4726  0.6514
11459SOL     OW35817   1.189   2.347   9.890  0.0726  0.1493 -0.3541
11459SOL    HW135818   1.165   2.371   9.979  0.2484 -1.4425  0.1523
11459SOL    HW235819   1.200   2.252   9.893 -0.4761 -0.0030 -2.2126
11460SOL     OW35820   1.807   7.166  10.072 -0.3113 -0.2854 -0.4017
11460SOL    HW135821   1.834   7.209  10.153  1.0908 -3.1898  0.8108
11460SOL    HW235822   1.868   7.197  10.006 -1.7532  2.4752 -0.5908
11461SOL     OW35823   4.952   2.254   8.446 -0.3145 -0.2623 -0.3559
11461SOL    HW135824   5.014   2.325   8.458 -0.9347 -0.0368  1.9086
11461SOL    HW235825   4.866   2.297   8.449 -0.6991 -1.0760  1.1513
11462SOL     OW35826   3.936   3.993   9.381  0.1066 -0.6599  0.5704
11462SOL    HW135827   3.930   3.921   9.318 -0.7616  2.1834 -2.9423
11462SOL    HW235828   3.845   4.014   9.401 -0.1423  2.7614 -2.9461
11463SOL     OW35829   2.220   0.011   2.576  0.0074 -0.4414  0.2552
11463SOL    HW135830   2.169   0.005   2.495 -0.6590 -2.0398  0.7419
11463SOL    HW235831   2.308   0.037   2.548 -0.0869 -1.4336 -1.0451
11464SOL     OW35832   3.740   5.803   0.970 -0.2609  0.3716 -0.6815
11464SOL    HW135833   3.705   5.885   0.935 -1.1955 -0.4866 -1.8214
11464SOL    HW235834   3.668   5.765   1.020 -0.6277 -0.8381 -2.0652
11465SOL     OW35835   6.552   4.052  10.132 -0.4618 -0.0712  0.2518
11465SOL    HW135836   6.519   3.969  10.167  2.0891 -1.0574  0.5365
11465SOL    HW235837   6.527   4.117  10.197  2.5010 -1.5620  3.2033
11466SOL     OW35838   6.861   0.187   0.330  0.0206 -0.2018  0.2574
11466SOL    HW135839   6.872   0.282   0.331  0.8800 -0.2900 -0.1407
11466SOL    HW235840   6.797   0.170   0.399  0.6583  0.5776  1.0668
11467SOL     OW35841   7.010   4.218  10.980 -0.8470  0.1338  0.6255
11467SOL    HW135842   6.956   4.180  10.911 -0.9293 -0.0535  0.7929
11467SOL    HW235843   7.013   4.311  10.959  0.9592 -0.2066 -0.8802
11468SOL     OW35844   0.712   4.597   8.105 -0.2877 -0.3427  0.3982
11468SOL    HW135845   0.744   4.683   8.134 -0.6195 -0.0706 -0.0413
11468SOL    HW235846   0.619   4.610   8.087 -0.5948 -1.0667  1.3960
11469SOL     OW35847   1.044   4.041   7.387  0.1354  0.2053  0.6098
11469SOL    HW135848   1.050   4.129   7.350  1.9979  0.2844  0.9990
11469SOL    HW235849   1.003   4.054   7.472 -1.1856  0.4357 -0.0245
11470SOL     OW35850   1.810   0.415   7.208 -0.1380 -0.2796  0.3201
11470SOL    HW135851   1.832   0.322   7.220  2.1773 -0.1835 -2.2573
11470SOL    HW235852   1.859   0.460   7.276 -2.0672 -0.9126  2.2496
11471SOL     OW35853   5.144   2.394   5.206  0.1473 -0.1795 -0.2557
11471SOL    HW135854   5.089   2.472   5.197 -0.5512 -0.5962  0.2653
11471SOL    HW235855   5.233   2.427   5.198 -0.0220  1.0124  1.9134
11472SOL     OW35856   5.626   0.004   9.592 -0.6816 -0.1414 -0.2357
11472SOL    HW135857   5.667   0.003   9.678  1.1088  1.1116 -0.9903
11472SOL    HW235858   5.599   0.095   9.579  1.5775  0.4038 -1.9851
11473SOL     OW35859   6.080   3.409   3.616  0.0151  0.4635  0.0948
11473SOL    HW135860   6.018   3.472   3.578 -0.0321  0.7034  0.5549
11473SOL    HW235861   6.093   3.440   3.706  0.6502  0.3001  0.0646
11474SOL     OW35862   3.606   2.827  11.814  0.2510  0.2988  0.1032
11474SOL    HW135863   3.655   2.768  11.758 -0.8939 -0.4757 -0.1262
11474SOL    HW235864   3.514   2.806  11.796 -0.1650  1.5277  0.6865
11475SOL     OW35865   5.955   3.731   0.813  0.2443 -0.3492  0.6859
11475SOL    HW135866   6.013   3.668   0.770 -1.5319 -0.0012 -2.5531
11475SOL    HW235867   6.013   3.799   0.846  1.8001 -0.2427 -2.0188
11476SOL     OW35868   1.020   4.752   2.455  0.0506 -0.3074  0.0663
11476SOL    HW135869   0.976   4.684   2.405 -0.2997 -0.6322  0.8151
11476SOL    HW235870   1.093   4.708   2.498 -2.2264 -1.1027  3.4976
11477SOL     OW35871   0.489   2.782   1.975 -0.1585 -0.2773  0.0171
11477SOL    HW135872   0.573   2.748   2.005  0.2996  0.9367  0.1637
11477SOL    HW235873   0.495   2.877   1.989 -2.1487 -0.3013  1.5564
11478SOL     OW35874   7.661   5.951   9.924  0.2727 -0.1410 -0.1833
11478SOL    HW135875   7.728   5.988   9.982  0.0201  1.9351 -1.1161
11478SOL    HW235876   7.591   5.923   9.983  0.1722  1.5987  0.5873
11479SOL     OW35877   1.384   0.776   2.746  0.1993  0.0237  0.1816
11479SOL    HW135878   1.442   0.852   2.748 -1.7894  1.6180  0.2357
11479SOL    HW235879   1.356   0.770   2.654  0.3017 -0.6176  0.1887
11480SOL     OW35880   3.421   1.857   1.242 -1.0452 -0.2974  0.1843
11480SOL    HW135881   3.429   1.933   1.185  0.9952 -0.9170 -0.4257
11480SOL    HW235882   3.490   1.868   1.307  0.3452 -2.3474 -0.8402
11481SOL     OW35883   2.662   5.487  10.486 -0.1857 -0.7337 -0.1158
11481SOL    HW135884   2.594   5.483  10.554 -0.1353 -1.4304 -0.0989
11481SOL    HW235885   2.713   5.408  10.500 -0.0984 -0.8171 -0.8942
11482SOL     OW35886   2.509   7.904   6.153 -0.1850  0.0619  0.5611
11482SOL    HW135887   2.583   7.900   6.213  0.1471  1.5608  0.2841
11482SOL    HW235888   2.540   7.860   6.074 -0.0783 -0.5167  0.9179
11483SOL     OW35889   6.844   5.680   6.580 -0.1387  0.5084 -0.3150
11483SOL    HW135890   6.766   5.631   6.555  0.1836 -0.2970  0.2159
11483SOL    HW235891   6.909   5.657   6.513  0.6779 -1.5312  1.0579
11484SOL     OW35892   0.531   3.221   3.538  0.0832 -0.0309 -0.3315
11484SOL    HW135893   0.442   3.188   3.551  0.3632 -0.4271  0.7161
11484SOL    HW235894   0.520   3.315   3.523 -0.5834 -0.2572 -1.2951
11485SOL     OW35895   7.419   1.315  12.107  0.6618  0.2715 -0.2612
11485SOL    HW135896   7.335   1.288  12.069  1.2010 -0.6005 -0.8622
11485SOL    HW235897   7.431   1.258  12.183  0.9373  0.0641 -0.4592
11486SOL     OW35898   2.281   4.738  11.094  0.3815  0.0605  0.2392
11486SOL    HW135899   2.185   4.741  11.103  0.4054 -0.4934  0.7600
11486SOL    HW235900   2.298   4.768  11.005 -0.2896 -0.0120  0.0811
11487SOL     OW35901   5.518   3.617   0.254 -0.1536 -0.2442 -0.3291
11487SOL    HW135902   5.447   3.568   0.212 -1.7143  0.9861  0.7430
11487SOL    HW235903   5.508   3.707   0.222  0.2561  0.1632  0.6358
11488SOL     OW35904   3.233   6.273   9.833 -0.3419 -0.2898 -0.1313
11488SOL    HW135905   3.206   6.335   9.901 -1.8745  1.2377 -1.9921
11488SOL    HW235906   3.167   6.204   9.835 -1.3074  0.5666 -1.0257
11489SOL     OW35907   3.019   2.545   2.746 -0.2609  0.4467 -0.1651
11489SOL    HW135908   3.088   2.502   2.695  0.3621  0.0915  0.9269
11489SOL    HW235909   3.013   2.633   2.709  1.7335  0.9313  0.5365
11490SOL     OW35910   1.258   0.726   7.839 -0.4168 -0.0459  0.4592
11490SOL    HW135911   1.246   0.773   7.756  1.0594  1.5902  1.1118
11490SOL    HW235912   1.349   0.696   7.836  0.2839  1.6893  2.2299
11491SOL     OW35913   2.230   6.732  10.164  0.1874 -0.3638 -0.2890
11491SOL    HW135914   2.212   6.672  10.236  0.6287 -0.3749 -0.1822
11491SOL    HW235915   2.164   6.801  10.172  0.2179 -0.3779  0.1157
11492SOL     OW35916   1.366   6.400   4.334 -0.7071 -0.1399  0.2935
11492SOL    HW135917   1.327   6.313   4.332  0.0960 -0.4912 -0.8677
11492SOL    HW235918   1.386   6.414   4.427  0.7796 -1.9430  0.2994
11493SOL     OW35919   6.566   4.346  12.287  0.2288  0.0305 -0.0162
11493SOL    HW135920   6.601   4.274  12.234 -1.3932 -0.2054 -0.8296
11493SOL    HW235921   6.578   4.424  12.232  0.2469  0.0812  0.0596
11494SOL     OW35922   2.290   3.897  11.750  0.7670 -0.1954  0.2834
11494SOL    HW135923   2.249   3.859  11.672  0.0046  2.2388 -0.6093
11494SOL    HW235924   2.227   3.880  11.821 -0.6456  1.2698 -0.5519
11495SOL     OW35925   6.394   6.079   5.447 -0.7312 -0.8736 -0.5159
11495SOL    HW135926   6.357   6.143   5.507 -1.1879 -0.8443 -0.8257
11495SOL    HW235927   6.408   6.128   5.366 -1.0385 -1.1551 -0.7399
11496SOL     OW35928   4.929   2.841   1.161  0.5064 -0.2891  0.3227
11496SOL    HW135929   4.841   2.877   1.144  0.7400 -0.3580 -1.1969
11496SOL    HW235930   4.976   2.854   1.079  2.6997  1.8532  1.7968
11497SOL     OW35931   6.564   6.334   9.692  0.3336  0.0616 -0.2063
11497SOL    HW135932   6.654   6.365   9.701  1.0435 -1.9333 -0.0942
11497SOL    HW235933   6.561   6.293   9.606 -0.9555  1.4890 -0.9092
11498SOL     OW35934   1.297   0.883   1.770  0.2517 -0.6556 -0.3072
11498SOL    HW135935   1.347   0.802   1.759 -0.1838 -0.6806 -2.3954
11498SOL    HW235936   1.356   0.952   1.740 -0.2388 -0.4680 -0.8528
11499SOL     OW35937   3.250   3.488   0.108  0.4668 -0.0902  0.2830
11499SOL    HW135938   3.304   3.441   0.045 -1.0604  0.2131 -1.3373
11499SOL    HW235939   3.252   3.579   0.079 -1.0836 -0.1112  0.0077
11500SOL     OW35940   2.168   4.880   4.836  0.1493 -0.6726  0.3182
11500SOL    HW135941   2.246   4.932   4.816 -0.6434  0.0954 -0.9267
11500SOL    HW235942   2.198   4.789   4.832  1.2602 -0.3714  1.2111
11501SOL     OW35943   1.552   7.857   1.186 -0.3092 -0.6710 -0.3344
11501SOL    HW135944   1.567   7.951   1.175 -0.4843 -0.3231  1.9774
11501SOL    HW235945   1.462   7.851   1.218 -0.6294 -1.7418 -1.3420
11502SOL     OW35946   2.542   6.840   6.971 -0.1339  0.5193  0.0787
11502SOL    HW135947   2.497   6.782   7.032  0.7253 -0.7832 -0.4843
11502SOL    HW235948   2.564   6.917   7.024 -1.1755  0.2870  0.8809
11503SOL     OW35949   6.806   2.457   1.846  0.3402  0.0652 -0.2937
11503SOL    HW135950   6.883   2.410   1.878  1.4498  2.2088  0.3300
11503SOL    HW235951   6.841   2.535   1.803 -1.4859  2.0646  1.6025
11504SOL     OW35952   3.714   5.858   9.828  0.3325  0.3427  0.1790
11504SOL    HW135953   3.716   5.943   9.785  1.3175  1.0402  1.5334
11504SOL    HW235954   3.724   5.877   9.921 -1.0843 -1.1558  0.6917
11505SOL     OW35955   2.919   7.021   9.012 -0.1206  0.1281 -0.4023
11505SOL    HW135956   2.896   7.074   8.936 -0.5010  1.0185  0.3164
11505SOL    HW235957   3.008   6.991   8.994 -0.4566 -0.2634 -1.5078
11506SOL     OW35958   1.456   7.304   9.399 -0.1048  0.2830  0.3417
11506SOL    HW135959   1.380   7.251   9.375  0.7503 -0.6793 -0.3301
11506SOL    HW235960   1.451   7.311   9.494 -0.7148 -0.2599  0.3576
11507SOL     OW35961   0.767   6.150   6.217 -0.1335 -0.4618  0.0270
11507SOL    HW135962   0.717   6.219   6.175 -0.3133 -1.0545 -0.7576
11507SOL    HW235963   0.858   6.181   6.214 -0.1631 -0.4243 -0.6688
11508SOL     OW35964   0.480   3.101   8.892  0.0904  0.1395  0.1524
11508SOL    HW135965   0.467   3.174   8.952  0.1591  0.9823 -0.8276
11508SOL    HW235966   0.428   3.030   8.929  0.0847  0.6470  1.1675
11509SOL     OW35967   6.207   1.110   6.162 -0.6330 -0.4232  0.0209
11509SOL    HW135968   6.247   1.170   6.099 -0.8310  0.7868  1.0028
11509SOL    HW235969   6.146   1.058   6.111  0.0344 -0.2576 -0.9735
11510SOL     OW35970   6.930   6.721   0.550  0.0747  0.1109 -0.2977
11510SOL    HW135971   6.884   6.658   0.494 -0.3297 -1.5965  1.8399
11510SOL    HW235972   6.863   6.756   0.608  0.4372  2.0873 -0.9787
11511SOL     OW35973   2.863   1.295   6.696 -0.8316  0.3297 -0.2883
11511SOL    HW135974   2.824   1.382   6.707  1.0017  1.2497 -0.6380
11511SOL    HW235975   2.863   1.258   6.785 -1.6320  0.6547 -0.1363
11512SOL     OW35976   6.832   2.120   8.665 -0.1396 -0.5651 -0.5947
11512SOL    HW135977   6.791   2.166   8.739  0.6463 -1.1079  0.1938
11512SOL    HW235978   6.922   2.106   8.693  0.3775 -0.1163 -1.9735
11513SOL     OW35979   5.429   0.460   3.598  0.4064 -0.0228 -0.6185
11513SOL    HW135980   5.510   0.439   3.643  0.7214 -0.9206 -1.5709
11513SOL    HW235981   5.456   0.510   3.521  0.0080  0.1289 -0.6659
11514SOL     OW35982   4.421   1.212   1.322  0.0481 -0.3727 -0.0261
11514SOL    HW135983   4.365   1.144   1.285 -1.5020  1.0171 -0.3661
11514SOL    HW235984   4.448   1.178   1.407 -0.5166 -1.4919 -0.2782
11515SOL     OW35985   5.139   2.110   4.144  0.5534 -0.3641 -0.1576
11515SOL    HW135986   5.126   2.054   4.221 -0.4373 -0.6002 -0.4717
11515SOL    HW235987   5.096   2.192   4.168 -0.2947 -0.6453 -0.6679
11516SOL     OW35988   6.193   1.049   4.772 -0.2074 -0.3090  0.5879
11516SOL    HW135989   6.284   1.020   4.764 -0.2152  0.0816 -1.4302
11516SOL    HW235990   6.197   1.144   4.773 -0.6599 -0.2407 -1.2212
11517SOL     OW35991   2.518   2.397   9.460 -0.0677 -0.3859 -0.3572
11517SOL    HW135992   2.480   2.394   9.372  0.4346 -0.0333 -0.5880
11517SOL    HW235993   2.537   2.489   9.475 -0.6678 -0.3713  0.3450
11518SOL     OW35994   3.886   1.636   3.227  0.1811 -0.0498 -0.7247
11518SOL    HW135995   3.934   1.556   3.248  0.3023  0.1771 -0.0898
11518SOL    HW235996   3.796   1.618   3.256  0.2174  0.0548 -0.5436
11519SOL     OW35997   0.332   0.983   0.547 -0.0254  0.0614 -0.0925
11519SOL    HW135998   0.363   0.926   0.477  2.7082  1.2605  0.0215
11519SOL    HW235999   0.375   0.950   0.626 -0.9651  0.3514  0.5638
11520SOL     OW36000   7.130   1.832   6.046 -0.3726 -0.7539  0.4872
11520SOL    HW136001   7.081   1.826   5.964 -1.1247 -1.0687  0.9495
11520SOL    HW236002   7.066   1.812   6.114  0.4860 -1.5726  1.0863
11521SOL     OW36003   0.622   2.325   0.599 -0.1841 -0.3438  0.1819
11521SOL    HW136004   0.622   2.389   0.527  2.6439 -1.9606 -1.4709
11521SOL    HW236005   0.693   2.264   0.576 -2.2212 -3.6842  1.9966
11522SOL     OW36006   4.977   7.448   9.725  0.5735 -0.2548  0.0956
11522SOL    HW136007   4.992   7.365   9.771 -0.1414 -0.0069  0.7927
11522SOL    HW236008   4.935   7.504   9.790 -0.6232  0.0473 -0.9145
11523SOL     OW36009   6.144   1.738   4.484 -0.8226 -0.3692 -0.8323
11523SOL    HW136010   6.185   1.712   4.402  0.4780  1.7110 -0.8941
11523SOL    HW236011   6.062   1.780   4.458  0.0226  1.1391 -1.2018
11524SOL     OW36012   2.219   3.919   2.248 -0.0897 -0.3186  0.1259
11524SOL    HW136013   2.286   3.950   2.187 -0.5420 -0.4836 -0.4617
11524SOL    HW236014   2.247   3.953   2.333  0.0819  0.6568 -0.3027
11525SOL     OW36015   1.896   6.666  10.193  0.1337 -0.0336 -0.3302
11525SOL    HW136016   1.911   6.605  10.120 -1.8158 -0.4274 -0.4495
11525SOL    HW236017   1.906   6.753  10.154 -0.8537 -0.2419 -1.0954
11526SOL     OW36018   5.041   4.324   2.435 -0.0485 -0.0722 -0.3693
11526SOL    HW136019   5.024   4.252   2.373 -3.6800  0.6850 -0.4775
11526SOL    HW236020   5.034   4.283   2.521 -0.6595 -0.1436 -0.4454
11527SOL     OW36021   7.331   7.545  12.070  0.0087 -0.5162 -0.2475
11527SOL    HW136022   7.416   7.583  12.090  0.1429 -0.1772 -1.3731
11527SOL    HW236023   7.277   7.564  12.146  0.3696  1.0401 -0.3558
11528SOL     OW36024   4.414   3.992  10.904  0.0863 -0.2267  0.8389
11528SOL    HW136025   4.481   4.052  10.872  1.1738 -1.6209  0.4071
11528SOL    HW236026   4.428   3.911  10.855 -2.1387 -0.4793  0.4922
11529SOL     OW36027   7.605   5.280   0.850 -0.4655 -0.1741 -0.0918
11529SOL    HW136028   7.634   5.199   0.892  2.0437  0.8549  0.3184
11529SOL    HW236029   7.590   5.340   0.923 -1.4177  0.0198 -0.4364
11530SOL     OW36030   1.977   2.889  11.689 -0.9281  0.3246  0.1858
11530SOL    HW136031   1.891   2.917  11.658 -0.6118  0.3316 -0.6950
11530SOL    HW236032   1.987   2.935  11.773 -0.7217  2.3946 -0.8888
11531SOL     OW36033   2.557   0.323   0.114 -0.6551 -0.7808 -0.0859
11531SOL    HW136034   2.550   0.401   0.168  2.5012 -1.2347  1.2465
11531SOL    HW236035   2.541   0.250   0.174  0.4308 -1.2286 -0.3112
11532SOL     OW36036   4.532   0.122   7.748 -0.3873  1.0756  0.0294
11532SOL    HW136037   4.517   0.196   7.806 -1.2971  1.8543 -1.1496
11532SOL    HW236038   4.444   0.090   7.726 -0.0555  0.5157 -0.5495
11533SOL     OW36039   2.382   5.975   3.653  0.5253  0.3945  0.1034
11533SOL    HW136040   2.473   5.950   3.643  0.5414  0.1608  0.7806
11533SOL    HW236041   2.345   5.967   3.565  0.6844 -1.3896  0.1554
11534SOL     OW36042   1.192   0.782   2.212  0.3059  0.2717  0.5996
11534SOL    HW136043   1.204   0.746   2.125  0.6668 -1.3452  1.2835
11534SOL    HW236044   1.184   0.877   2.198 -3.3814 -0.1890 -1.5565
11535SOL     OW36045   7.479   1.283  10.623  0.3669 -0.4838 -0.1699
11535SOL    HW136046   7.486   1.270  10.718  1.0636  0.4793 -0.0760
11535SOL    HW236047   7.388   1.261  10.602  0.2512 -0.8685  0.6872
11536SOL     OW36048   7.222   6.952   7.662  0.1123  0.0427 -0.2654
11536SOL    HW136049   7.262   7.034   7.692 -1.1749 -0.0168  1.8200
11536SOL    HW236050   7.261   6.886   7.719 -0.8709 -0.3965 -0.1002
11537SOL     OW36051   4.164   1.168   3.555  0.1691 -0.1628  0.3513
11537SOL    HW136052   4.251   1.129   3.541 -0.3903 -1.7413  1.0126
11537SOL    HW236053   4.107   1.093   3.569 -0.9038  0.9333  2.1735
11538SOL     OW36054   0.309   1.795   1.350 -0.0061  0.3638 -0.5156
11538SOL    HW136055   0.243   1.726   1.358 -0.1433  0.4587 -0.8074
11538SOL    HW236056   0.357   1.792   1.433  0.0541 -0.1484 -0.5640
11539SOL     OW36057   2.930   6.433   7.645 -0.7490  0.1323  0.0226
11539SOL    HW136058   2.979   6.377   7.705 -1.3368  0.3320  0.7154
11539SOL    HW236059   2.965   6.521   7.660  1.1472 -0.2053 -2.0726
11540SOL     OW36060   1.227   4.352   3.706 -0.0170 -0.5471  0.0199
11540SOL    HW136061   1.313   4.308   3.711 -0.1473 -0.7237  0.8980
11540SOL    HW236062   1.182   4.307   3.634  0.2944 -1.0690  0.1416
11541SOL     OW36063   0.240   3.945   3.005  0.1223  0.3216  0.1764
11541SOL    HW136064   0.174   3.917   2.941 -0.4854 -1.1450  1.4013
11541SOL    HW236065   0.195   4.010   3.059  0.1354  0.3949  0.0987
11542SOL     OW36066   4.861   4.572  10.524 -0.2713 -0.2029  0.2337
11542SOL    HW136067   4.864   4.662  10.556 -0.1934  0.3607 -1.2491
11542SOL    HW236068   4.787   4.571  10.463 -0.7641 -1.3584  0.8339
11543SOL     OW36069   6.024   6.371   4.822  0.0821 -0.4027  0.0475
11543SOL    HW136070   6.086   6.444   4.831 -1.0131  0.7904 -1.5120
11543SOL    HW236071   5.945   6.412   4.785 -0.9671 -2.2030  0.2128
11544SOL     OW36072   2.708   5.253  12.017 -0.3357 -0.2055 -0.8831
11544SOL    HW136073   2.725   5.207  12.100 -0.6420 -1.8431 -1.6854
11544SOL    HW236074   2.794   5.258  11.976 -0.0371  1.3755 -0.1158
11545SOL     OW36075   2.459   5.797   7.676 -0.0397  0.3773 -0.4358
11545SOL    HW136076   2.449   5.843   7.593 -0.2373  0.9921 -0.0746
11545SOL    HW236077   2.434   5.861   7.742  0.3627 -0.0240  0.1143
11546SOL     OW36078   2.925   7.186   2.017 -0.3507  0.1912  0.2063
11546SOL    HW136079   2.980   7.208   2.092  1.8449 -2.1655 -0.5494
11546SOL    HW236080   2.900   7.094   2.032  0.5807 -0.5226 -2.0900
11547SOL     OW36081   0.830   5.799   0.765  0.1059 -0.1314 -0.2043
11547SOL    HW136082   0.887   5.870   0.794  0.6454 -0.6488  0.0199
11547SOL    HW236083   0.744   5.840   0.756  0.5689  0.7404 -0.8555
11548SOL     OW36084   7.568   2.415   2.661 -0.0442 -0.1044 -0.3739
11548SOL    HW136085   7.512   2.339   2.643  0.4621 -0.5730 -0.0119
11548SOL    HW236086   7.536   2.483   2.602 -1.4853 -0.1227  0.3624
11549SOL     OW36087   4.864   7.683  12.022  0.1006  0.9191 -0.3704
11549SOL    HW136088   4.777   7.701  11.987  0.0229 -1.5988 -1.7284
11549SOL    HW236089   4.858   7.705  12.115 -1.4527  2.3377 -0.7660
11550SOL     OW36090   3.804   7.889   2.791 -0.4180 -0.0949 -0.0624
11550SOL    HW136091   3.851   7.940   2.725 -0.5778 -0.9453 -0.8604
11550SOL    HW236092   3.834   7.924   2.875 -0.9612  1.6728 -0.5759
11551SOL     OW36093   2.651   2.024  10.765 -0.6180 -0.1319 -0.0379
11551SOL    HW136094   2.676   1.933  10.783 -0.4681  0.1657  1.3132
11551SOL    HW236095   2.733   2.073  10.771 -0.7634  0.1586 -0.3705
11552SOL     OW36096   7.445   2.871  12.332  0.0226 -0.1247 -0.1036
11552SOL    HW136097   7.377   2.849  12.269  0.5708  1.3180 -1.2531
11552SOL    HW236098   7.411   2.946  12.380  0.1725 -0.3789  0.4220
11553SOL     OW36099   0.633   4.157   5.173  0.2205 -0.4979 -0.1270
11553SOL    HW136100   0.637   4.064   5.196 -0.8481 -0.5550 -0.1252
11553SOL    HW236101   0.716   4.174   5.128  0.8905 -1.1913  0.7964
11554SOL     OW36102   6.488   6.969   9.399 -0.0002 -0.5790  0.1757
11554SOL    HW136103   6.483   6.912   9.476 -0.9651 -0.6300  0.0918
11554SOL    HW236104   6.408   7.021   9.403 -1.2424 -2.1237 -1.9748
11555SOL     OW36105   6.708   4.487   7.724  0.9212  0.5771 -0.1922
11555SOL    HW136106   6.616   4.505   7.743  0.7758  0.1807 -0.5038
11555SOL    HW236107   6.724   4.401   7.762  0.9096  0.2387 -0.9429
11556SOL     OW36108   6.213   5.107   9.988 -0.4466 -0.0564 -0.3313
11556SOL    HW136109   6.135   5.122  10.042 -0.3224  0.1926 -0.2170
11556SOL    HW236110   6.183   5.049   9.918 -0.6138 -0.3684 -0.0070
11557SOL     OW36111   2.236   5.093   0.228 -0.7533  0.4286 -0.2849
11557SOL    HW136112   2.237   5.189   0.221 -0.2261  0.4191 -0.3241
11557SOL    HW236113   2.301   5.072   0.294 -2.9463  0.2523  1.9535
11558SOL     OW36114   7.553   2.767   8.872 -0.3576 -0.4701  0.1343
11558SOL    HW136115   7.544   2.862   8.872 -1.6424 -0.5601 -1.0767
11558SOL    HW236116   7.618   2.749   8.940 -0.3659  1.2389  0.6374
11559SOL     OW36117   3.734   0.680   5.865 -0.0351  0.5268  0.3942
11559SOL    HW136118   3.802   0.626   5.824 -1.3794 -1.7349  0.9610
11559SOL    HW236119   3.709   0.742   5.797  1.9653  0.8613 -0.1124
11560SOL     OW36120   3.348   1.163   5.157  0.0996 -0.3280  0.4170
11560SOL    HW136121   3.363   1.083   5.106  0.9336  0.7985 -1.1827
11560SOL    HW236122   3.253   1.171   5.161  0.0080 -0.8200 -0.4140
11561SOL     OW36123   3.781   5.423   8.128  0.1732  0.1694  0.1335
11561SOL    HW136124   3.726   5.433   8.051 -1.0115 -2.1404  0.5931
11561SOL    HW236125   3.799   5.329   8.134  0.3958  0.2885  2.5222
11562SOL     OW36126   1.061   2.565   2.109  0.1859  0.1375  0.5214
11562SOL    HW136127   1.113   2.558   2.029  0.7280 -0.7092  0.9308
11562SOL    HW236128   1.063   2.658   2.132  0.4397  0.3058 -0.1657
11563SOL     OW36129   0.049   6.321   8.356 -0.1569 -0.1562  0.0065
11563SOL    HW136130   0.081   6.399   8.311 -0.3081 -0.5833 -0.8623
11563SOL    HW236131  -0.037   6.346   8.389  0.0455  0.2284  0.2500
11564SOL     OW36132   5.589   0.296   3.068 -0.0545  0.3125 -0.1953
11564SOL    HW136133   5.501   0.324   3.043  0.0928  0.7354 -0.2417
11564SOL    HW236134   5.597   0.324   3.159  0.5033  1.4254 -0.5753
11565SOL     OW36135   4.963   3.534  10.528 -0.2571 -0.4578  0.6279
11565SOL    HW136136   4.960   3.577  10.442  0.2784 -0.1468  0.7573
11565SOL    HW236137   4.921   3.596  10.587  1.5982  0.4811  1.0419
11566SOL     OW36138   5.284   3.932   8.294  0.2440  0.2164  0.6222
11566SOL    HW136139   5.301   4.003   8.355  1.4133 -0.4540  1.1182
11566SOL    HW236140   5.239   3.866   8.347  1.7676 -0.6054  0.9511
11567SOL     OW36141   2.303   0.670   3.536  0.1409 -0.3771  0.2189
11567SOL    HW136142   2.222   0.634   3.574  0.6692 -0.6293  1.1299
11567SOL    HW236143   2.307   0.630   3.449 -0.9295 -0.0328 -0.0089
11568SOL     OW36144   0.854   1.474   6.166  0.3456  0.1846  0.3385
11568SOL    HW136145   0.822   1.415   6.234  0.7443 -1.6591 -1.0046
11568SOL    HW236146   0.778   1.530   6.146 -0.4006 -0.6091  0.8575
11569SOL     OW36147   2.236   1.415   3.137 -0.3687  0.2323  0.1806
11569SOL    HW136148   2.163   1.461   3.179 -1.0005 -1.3111  0.8215
11569SOL    HW236149   2.286   1.378   3.209  0.4882  0.4251 -0.2999
11570SOL     OW36150   6.503   3.004   1.664  0.0135 -0.2096 -0.2851
11570SOL    HW136151   6.456   3.085   1.645  0.4902  0.2547  0.4334
11570SOL    HW236152   6.591   3.019   1.629 -0.0083 -0.5678 -0.4920
11571SOL     OW36153   5.153   6.546   2.154 -0.0430  0.2443  0.1906
11571SOL    HW136154   5.157   6.595   2.072  1.6477 -1.1591 -0.6213
11571SOL    HW236155   5.199   6.601   2.217 -0.8648  1.0773  0.0792
11572SOL     OW36156   4.974   2.896   3.715 -0.0085 -0.2429  0.0133
11572SOL    HW136157   4.988   2.990   3.726  0.1699 -0.5068  2.4633
11572SOL    HW236158   5.023   2.873   3.636  1.8919  1.3143  0.6752
11573SOL     OW36159   2.625   3.445   9.952  0.2147 -0.3871 -0.4913
11573SOL    HW136160   2.534   3.436   9.979 -0.1218  2.1721 -0.5197
11573SOL    HW236161   2.623   3.509   9.881  1.9904 -0.7407 -0.9224
11574SOL     OW36162   7.919   6.318   8.959 -0.3366 -0.0238  0.2011
11574SOL    HW136163   7.999   6.363   8.987  0.4815 -0.4011 -1.4241
11574SOL    HW236164   7.900   6.257   9.031 -0.4675  1.6391  1.6256
11575SOL     OW36165   2.825   6.151   0.350 -0.1067  0.6847 -0.3681
11575SOL    HW136166   2.740   6.120   0.319  0.3296 -0.1661 -0.7572
11575SOL    HW236167   2.873   6.172   0.271  1.1195 -1.7880 -0.3710
11576SOL     OW36168   5.368   4.831  10.343 -0.2885 -0.0933 -0.3985
11576SOL    HW136169   5.274   4.820  10.357  0.0149 -0.4781  1.6417
11576SOL    HW236170   5.397   4.749  10.302 -0.4286 -1.1908  1.5554
11577SOL     OW36171   7.760   7.922   3.401  0.5694  0.1623  0.5028
11577SOL    HW136172   7.813   7.844   3.410  1.3942  0.7396  0.7988
11577SOL    HW236173   7.670   7.891   3.407  0.9004 -0.6574  1.5197
11578SOL     OW36174   2.238   3.613   9.479 -0.7499 -0.1371  0.0906
11578SOL    HW136175   2.176   3.577   9.415 -1.2113 -0.8229  0.9030
11578SOL    HW236176   2.210   3.704   9.491 -0.1759  0.2431 -1.2568
11579SOL     OW36177   4.417   0.614  10.077 -0.2643  0.0403 -0.1422
11579SOL    HW136178   4.433   0.708  10.087 -1.4825  0.2976 -0.5548
11579SOL    HW236179   4.379   0.605   9.990 -3.4912 -0.3505  1.1965
11580SOL     OW36180   3.733   5.709   9.587  0.5272 -0.5202  0.0630
11580SOL    HW136181   3.827   5.696   9.597  0.7833 -0.7431 -2.1981
11580SOL    HW236182   3.715   5.789   9.635  2.0126 -0.0557 -0.1070
11581SOL     OW36183   2.399   2.807   9.158  0.0408 -0.0230 -0.2824
11581SOL    HW136184   2.367   2.885   9.112  0.2990  1.7749  2.3847
11581SOL    HW236185   2.322   2.750   9.163  0.1783 -0.7082 -3.4794
11582SOL     OW36186   2.792   5.174   4.680  0.0518 -0.4651 -0.1545
11582SOL    HW136187   2.749   5.100   4.636 -1.1948  1.7193 -2.9605
11582SOL    HW236188   2.885   5.162   4.663 -0.0041 -1.9897  0.5044
11583SOL     OW36189   5.598   1.582   9.780  0.0698 -0.3888 -0.5760
11583SOL    HW136190   5.685   1.582   9.819 -0.5533 -0.9671  0.8725
11583SOL    HW236191   5.615   1.582   9.685  1.7039 -2.8221 -0.3934
11584SOL     OW36192   0.361   4.919   6.121 -0.4943  0.1109  0.5245
11584SOL    HW136193   0.411   4.968   6.187  0.4978 -1.4391  0.9859
11584SOL    HW236194   0.322   4.986   6.066 -0.8792  1.4527  2.3376
11585SOL     OW36195   2.627   3.561   7.560 -0.5072  0.0733 -0.7297
11585SOL    HW136196   2.643   3.628   7.626  0.1296 -0.0301 -0.7747
11585SOL    HW236197   2.636   3.478   7.607 -0.2933  0.0036 -0.8935
11586SOL     OW36198   3.529   3.376   7.060  0.1911 -0.6045  0.0353
11586SOL    HW136199   3.539   3.407   6.970 -0.4115  0.3204  0.2780
11586SOL    HW236200   3.610   3.328   7.077  1.3748  1.1994 -0.2232
11587SOL     OW36201   5.479   2.914   0.608  0.2512  0.1041 -0.5064
11587SOL    HW136202   5.467   3.009   0.612  0.0429  0.0500  0.1997
11587SOL    HW236203   5.466   2.893   0.515 -0.2563  0.6903 -0.5756
11588SOL     OW36204   3.269   4.959   4.974 -0.2119 -0.2462  0.0747
11588SOL    HW136205   3.180   4.982   5.001 -0.5098 -1.3282  0.0745
11588SOL    HW236206   3.304   4.909   5.048  0.8391  1.1644  0.5772
11589SOL     OW36207   6.187   7.336   2.300  0.0609 -0.2482 -0.2473
11589SOL    HW136208   6.097   7.367   2.303 -0.3430 -1.3517 -0.3771
11589SOL    HW236209   6.206   7.325   2.207 -0.0825 -1.1155 -0.1862
11590SOL     OW36210   6.444   2.010  10.880  0.9521 -0.2270  0.2915
11590SOL    HW136211   6.483   2.015  10.793  1.6592  0.2381  0.6237
11590SOL    HW236212   6.480   2.085  10.927  1.1012 -0.8416  1.1875
11591SOL     OW36213   3.271   3.971   7.136 -0.0220 -0.5224 -0.2685
11591SOL    HW136214   3.328   3.981   7.059  0.1632 -0.6161 -0.1433
11591SOL    HW236215   3.320   3.914   7.195 -0.6674 -1.4436 -0.5800
11592SOL     OW36216   3.377   3.190  12.114  0.7390  0.4745  0.0387
11592SOL    HW136217   3.374   3.099  12.144 -2.2203  0.2674 -0.5274
11592SOL    HW236218   3.448   3.193  12.050 -0.9399 -2.2423 -2.1538
11593SOL     OW36219   1.888   4.199  11.356 -0.5989  0.2259  0.1649
11593SOL    HW136220   1.966   4.239  11.394 -0.5901 -0.4133  0.8326
11593SOL    HW236221   1.827   4.192  11.429 -0.6534 -0.8279  0.0353
11594SOL     OW36222   1.761   6.721   3.337  0.7119 -0.7943 -0.6047
11594SOL    HW136223   1.690   6.682   3.388  1.1874 -0.4066  0.3762
11594SOL    HW236224   1.814   6.646   3.310 -0.2250 -1.1136 -1.6093
11595SOL     OW36225   7.217   2.403   7.934 -0.1438 -0.2177  0.4422
11595SOL    HW136226   7.162   2.420   8.011  0.5598  0.7193  0.7494
11595SOL    HW236227   7.303   2.435   7.958  0.6851 -2.0918  0.1259
11596SOL     OW36228   6.938   5.554  10.394 -0.9153 -0.1393 -0.3382
11596SOL    HW136229   6.880   5.480  10.413 -0.0617 -0.6739  0.3047
11596SOL    HW236230   7.024   5.514  10.383  0.2275  0.9508  3.1906
11597SOL     OW36231   4.426   7.948  10.556  0.1203  0.0156  0.2020
11597SOL    HW136232   4.337   7.913  10.556 -0.4314  1.3706  0.7894
11597SOL    HW236233   4.431   8.003  10.634  1.7912 -0.7870  0.7151
11598SOL     OW36234   6.470   3.229   2.705  0.3538 -0.5070 -0.4149
11598SOL    HW136235   6.497   3.145   2.668  1.3086 -0.3104 -0.1914
11598SOL    HW236236   6.425   3.206   2.786  0.3481 -0.8217 -0.5073
11599SOL     OW36237   3.392   0.757   2.121 -0.2508 -0.2441  0.0132
11599SOL    HW136238   3.368   0.834   2.070  1.2266  0.3162  0.1223
11599SOL    HW236239   3.427   0.792   2.203 -1.3941 -1.1030  0.9084
11600SOL     OW36240   5.223   2.111   7.283  0.6377 -0.5106 -0.3926
11600SOL    HW136241   5.224   2.046   7.212 -1.0783  0.5188 -1.4205
11600SOL    HW236242   5.136   2.102   7.323  0.0662  1.6247 -1.0524
11601SOL     OW36243   3.949   7.113  10.574 -0.3575 -0.1696 -0.3445
11601SOL    HW136244   3.937   7.196  10.620  2.5310  1.1794 -1.6964
11601SOL    HW236245   3.980   7.052  10.641  2.6762  1.4310 -0.1096
11602SOL     OW36246   5.163   7.122   1.461  0.2232 -0.7341  0.5088
11602SOL    HW136247   5.160   7.044   1.406 -0.0665 -0.6298  0.3747
11602SOL    HW236248   5.082   7.119   1.513 -0.8182  0.5259 -0.9582
11603SOL     OW36249   0.983   4.179   0.575  0.4832  0.6292  0.1829
11603SOL    HW136250   0.995   4.210   0.485 -0.1642 -0.9213 -0.4832
11603SOL    HW236251   0.888   4.170   0.583  0.5723  0.2936  0.8608
11604SOL     OW36252   1.852   0.872  10.913  0.4036 -0.3552  0.0523
11604SOL    HW136253   1.937   0.912  10.930  0.4353 -1.0171  1.5642
11604SOL    HW236254   1.792   0.916  10.972 -0.4051  0.3071 -1.2072
11605SOL     OW36255   3.900   7.055   7.714  0.0100  0.5135 -0.3585
11605SOL    HW136256   3.810   7.087   7.716  0.0241  0.6011 -0.9476
11605SOL    HW236257   3.928   7.055   7.806 -0.9162 -0.4632 -0.0666
11606SOL     OW36258   7.879   1.683   6.484  0.0615  0.5182  0.2347
11606SOL    HW136259   7.795   1.643   6.505  0.9975 -1.4869  0.3199
11606SOL    HW236260   7.869   1.715   6.394 -0.8467  0.5088  0.3254
11607SOL     OW36261   3.383   2.390   9.059 -0.4765  0.1547  0.3535
11607SOL    HW136262   3.384   2.382   9.155 -0.2188 -0.7545  0.2874
11607SOL    HW236263   3.476   2.385   9.034 -0.5933 -0.3581  0.0111
11608SOL     OW36264   3.976   5.817   5.948 -0.0832 -0.2651 -0.4244
11608SOL    HW136265   3.981   5.777   6.035 -0.7739 -0.0753 -0.2964
11608SOL    HW236266   3.889   5.795   5.916 -0.1365  0.3700 -0.7264
11609SOL     OW36267   5.962   7.035   3.232  0.2012  0.5930  0.5676
11609SOL    HW136268   5.954   6.941   3.216  0.6883  0.6092  0.2210
11609SOL    HW236269   6.041   7.044   3.285  0.2171  0.8166  0.5075
11610SOL     OW36270   4.320   1.253   5.507 -0.5942 -0.5658 -0.3985
11610SOL    HW136271   4.334   1.275   5.599  1.8353 -1.3831 -0.5017
11610SOL    HW236272   4.248   1.310   5.480  0.3257  1.5781  1.3193
11611SOL     OW36273   4.233   4.136   9.399 -0.2234 -0.0331  0.1477
11611SOL    HW136274   4.304   4.104   9.343 -0.3351 -1.3437  0.7188
11611SOL    HW236275   4.160   4.076   9.381 -1.2392  1.3627 -0.5173
11612SOL     OW36276   6.949   0.624   6.788  0.5886  0.7055  0.3370
11612SOL    HW136277   6.944   0.715   6.757 -0.2334  0.8070  0.7492
11612SOL    HW236278   7.043   0.607   6.796  0.7898  1.0374 -1.1394
11613SOL     OW36279   5.053   3.556   9.959 -0.3724  0.4356 -0.2779
11613SOL    HW136280   5.123   3.596   9.908 -0.9313  0.7999 -0.7772
11613SOL    HW236281   5.046   3.467   9.925 -0.0331  0.3424 -0.1029
11614SOL     OW36282   4.411   2.024  11.778  0.4278 -0.2128  0.3099
11614SOL    HW136283   4.436   2.094  11.839  1.5555 -0.8089  0.5494
11614SOL    HW236284   4.470   2.036  11.704 -1.3541  0.9076 -1.0032
11615SOL     OW36285   7.451   3.547   1.417 -0.0785 -1.1548 -0.2712
11615SOL    HW136286   7.464   3.618   1.479  0.9507 -0.4106 -1.3085
11615SOL    HW236287   7.360   3.519   1.431 -0.3756  0.0972  0.4024
11616SOL     OW36288   4.552   5.079   6.376 -0.0982  0.4517  0.0047
11616SOL    HW136289   4.619   5.017   6.406  0.2299  0.5211 -0.5674
11616SOL    HW236290   4.490   5.084   6.449  0.2299 -0.0300  0.3272
11617SOL     OW36291   0.946   1.858   1.117  0.1938 -0.0503  0.6810
11617SOL    HW136292   0.924   1.806   1.041 -0.6351 -0.8334  1.4326
11617SOL    HW236293   0.867   1.909   1.135  0.3749  0.1173  1.0213
11618SOL     OW36294   1.458   5.228   0.347  0.0165  0.3772  0.7050
11618SOL    HW136295   1.489   5.266   0.264 -2.2672  2.6653  0.7631
11618SOL    HW236296   1.380   5.178   0.323  0.0378  0.0379  1.3342
11619SOL     OW36297   6.868   3.688   8.655 -0.4055 -0.1332 -0.1358
11619SOL    HW136298   6.890   3.655   8.568  0.7193  0.4468 -0.0927
11619SOL    HW236299   6.918   3.634   8.715 -0.5324  0.0033  0.0955
11620SOL     OW36300   1.638   3.879   7.116 -0.7427 -0.3425 -0.9316
11620SOL    HW136301   1.554   3.859   7.076 -1.2604 -1.1743  0.4948
11620SOL    HW236302   1.698   3.812   7.082 -0.8541 -0.2463 -1.3172
11621SOL     OW36303   6.226   6.759   0.661 -0.0931 -0.0604  0.2807
11621SOL    HW136304   6.187   6.735   0.577 -0.5413  1.1026  0.1412
11621SOL    HW236305   6.177   6.835   0.690 -0.2110 -0.6761  1.8114
11622SOL     OW36306   6.628   2.916  10.164  0.5867  0.4283  0.5139
11622SOL    HW136307   6.560   2.855  10.192  1.1085  0.2380  1.4306
11622SOL    HW236308   6.674   2.869  10.094  0.4605  0.0941  0.6497
11623SOL     OW36309   5.043   1.725  12.431 -0.1845  0.3085 -0.4063
11623SOL    HW136310   5.123   1.698  12.386 -1.4621 -1.8098 -1.5324
11623SOL    HW236311   5.059   1.817  12.453  1.9280  0.4135 -1.9985
11624SOL     OW36312   4.148   2.249   8.504  0.1410  0.8634 -0.4521
11624SOL    HW136313   4.177   2.267   8.593 -0.7714 -1.1094  0.2923
11624SOL    HW236314   4.054   2.268   8.504 -0.1201 -0.3787 -0.6214
11625SOL     OW36315   0.849   6.521   0.803 -0.4679  0.4274  0.3229
11625SOL    HW136316   0.759   6.522   0.835  0.0818  1.2605  1.9486
11625SOL    HW236317   0.873   6.613   0.795 -0.0463  0.2198 -0.9837
11626SOL     OW36318   1.391   6.073   6.539 -0.0558  0.3959  0.1116
11626SOL    HW136319   1.362   6.131   6.610  1.4459  0.3587  0.8033
11626SOL    HW236320   1.461   6.122   6.495 -2.0288  1.1220 -2.4538
11627SOL     OW36321   4.412   5.626   9.954  0.5430 -0.3828  0.3430
11627SOL    HW136322   4.358   5.553   9.925 -1.8157  1.1230  0.7136
11627SOL    HW236323   4.460   5.654   9.876 -1.0065 -0.3057 -0.6085
11628SOL     OW36324   4.934   1.571   2.140  0.7199  0.2103 -0.6978
11628SOL    HW136325   4.890   1.488   2.160  1.9357 -0.8940 -2.2833
11628SOL    HW236326   4.889   1.604   2.062  1.8400 -0.3135 -1.6021
11629SOL     OW36327   1.972   0.724   9.934 -0.5163 -0.2466  0.1225
11629SOL    HW136328   1.925   0.652   9.891 -1.0148  0.0938  0.0909
11629SOL    HW236329   2.051   0.683   9.970 -1.7257 -1.2426  1.8147
11630SOL     OW36330   7.621   4.043   3.063 -0.5734 -0.1147  0.7888
11630SOL    HW136331   7.588   4.117   3.113 -1.1932  0.1482  0.0170
11630SOL    HW236332   7.697   4.012   3.112  0.4560  1.7959  0.4897
11631SOL     OW36333   5.168   5.461   7.099  0.7971  0.5260  0.0467
11631SOL    HW136334   5.238   5.397   7.105 -0.0303 -0.4824 -0.8017
11631SOL    HW236335   5.126   5.459   7.186  2.2023  1.6402  0.7935
11632SOL     OW36336   3.636   7.239  10.734  0.1966 -0.3347 -0.3448
11632SOL    HW136337   3.709   7.292  10.766 -0.7117 -0.7117  2.6260
11632SOL    HW236338   3.605   7.286  10.657  2.3522  0.8532 -0.5836
11633SOL     OW36339   2.435   6.681   5.911 -0.0598 -0.2503  0.3674
11633SOL    HW136340   2.490   6.749   5.949  1.8966 -0.9414 -1.0483
11633SOL    HW236341   2.393   6.639   5.986  0.3156  1.1703  1.4060
11634SOL     OW36342   4.696   2.894  11.825  0.3028 -0.3179  0.0605
11634SOL    HW136343   4.670   2.905  11.916 -0.0062 -1.8855  0.1801
11634SOL    HW236344   4.649   2.817  11.795 -1.3446  1.3813 -2.1076
11635SOL     OW36345   7.392   1.218   5.952 -0.0597 -0.6691  0.1892
11635SOL    HW136346   7.450   1.197   6.025 -2.2215 -1.5930  1.7319
11635SOL    HW236347   7.409   1.311   5.934  2.5132 -1.1059 -0.0923
11636SOL     OW36348   1.285   4.008   4.498  0.1301  0.0770 -0.3035
11636SOL    HW136349   1.276   4.091   4.452 -0.0167  1.0229  1.3253
11636SOL    HW236350   1.195   3.978   4.512  0.1959 -0.7021 -1.4325
11637SOL     OW36351   4.913   1.834   1.855 -0.4429  0.0114  0.7547
11637SOL    HW136352   4.857   1.768   1.896 -2.9490  1.0939 -0.6806
11637SOL    HW236353   4.923   1.902   1.921 -0.1640 -0.5185  1.2720
11638SOL     OW36354   7.304   6.939   3.942 -0.5247  0.5135 -0.0640
11638SOL    HW136355   7.385   6.979   3.911 -0.6380  1.3616  0.6698
11638SOL    HW236356   7.321   6.917   4.034 -0.5715 -0.8856 -0.3704
11639SOL     OW36357   3.408   5.355   4.502 -0.3654  0.6205  0.5889
11639SOL    HW136358   3.339   5.301   4.465  0.0295 -1.3487  2.5552
11639SOL    HW236359   3.363   5.432   4.537 -0.9590  1.5670 -2.0013
11640SOL     OW36360   5.995   4.342  10.734  0.1177  0.2049 -0.2287
11640SOL    HW136361   5.934   4.320  10.664  1.6517  0.4777 -1.7357
11640SOL    HW236362   5.950   4.317  10.815 -1.1261 -1.5041 -1.3886
11641SOL     OW36363   7.671   0.975   3.875 -0.4697  0.2917 -0.1107
11641SOL    HW136364   7.758   1.001   3.846 -0.4845  0.6267  0.1402
11641SOL    HW236365   7.685   0.903   3.935 -0.3743  0.2710 -0.1583
11642SOL     OW36366   5.133   3.025   4.400 -0.5616 -0.5647  0.0355
11642SOL    HW136367   5.174   2.988   4.478 -0.0291  1.7999  0.9541
11642SOL    HW236368   5.039   3.024   4.420 -0.5894 -1.6231 -0.0846
11643SOL     OW36369   1.581   1.765  10.668 -0.4628 -0.2872  0.5239
11643SOL    HW136370   1.672   1.763  10.698  0.3222 -1.2860 -1.6538
11643SOL    HW236371   1.555   1.857  10.674  0.7901  0.0606  0.9443
11644SOL     OW36372   5.970   7.705   2.185 -0.3512  0.0199 -0.2342
11644SOL    HW136373   5.954   7.799   2.194  0.4037  0.1273  0.1143
11644SOL    HW236374   6.059   7.693   2.220 -1.7260 -1.3461  3.1455
11645SOL     OW36375   1.105   1.101   3.086 -0.2680  0.1573 -0.2060
11645SOL    HW136376   1.102   1.092   2.991 -1.0205  1.3997 -0.3212
11645SOL    HW236377   1.133   1.191   3.100  0.1428 -0.1101  0.7622
11646SOL     OW36378   2.345   1.232   1.366 -0.5954  0.3177 -0.0080
11646SOL    HW136379   2.266   1.284   1.378 -1.1639 -0.7658  1.2544
11646SOL    HW236380   2.328   1.151   1.414  1.3249  0.0956  0.4094
11647SOL     OW36381   1.508   7.573  11.428  0.4329 -0.1227  0.2549
11647SOL    HW136382   1.580   7.635  11.416  0.8877 -0.0529  2.7447
11647SOL    HW236383   1.434   7.627  11.456 -0.0831 -0.3965 -0.5426
11648SOL     OW36384   5.500   4.203   5.456 -0.3052  0.7069 -0.4386
11648SOL    HW136385   5.408   4.180   5.472  0.0174 -2.5256 -2.1741
11648SOL    HW236386   5.510   4.191   5.361  1.7517  1.6767 -0.3769
11649SOL     OW36387   3.352   5.324   0.993  0.7187  0.1258  0.2761
11649SOL    HW136388   3.336   5.384   0.921  0.9180  0.4432  0.4924
11649SOL    HW236389   3.447   5.316   0.997  0.7878  1.1568  1.3337
11650SOL     OW36390   4.660   3.150   3.966 -0.1779 -0.2012 -0.2165
11650SOL    HW136391   4.577   3.199   3.966  1.0902  2.1752 -1.7222
11650SOL    HW236392   4.724   3.214   3.997  1.0335 -2.2215  1.6542
11651SOL     OW36393   7.186   2.263  10.225  0.5997  0.1365  0.0877
11651SOL    HW136394   7.280   2.271  10.210  0.6789 -0.8708  0.0061
11651SOL    HW236395   7.179   2.213  10.306  0.1340  1.7913  1.1353
11652SOL     OW36396   5.898   0.357   6.332 -0.0036  0.3902 -0.4496
11652SOL    HW136397   5.809   0.369   6.301  0.0252  0.4546 -0.5076
11652SOL    HW236398   5.889   0.326   6.422 -0.1833 -3.0398 -1.5140
11653SOL     OW36399   2.171   2.418   6.177 -0.3017  0.2064  0.5192
11653SOL    HW136400   2.172   2.476   6.254  0.2803 -0.3173  0.9084
11653SOL    HW236401   2.261   2.388   6.168 -0.4506 -0.0537 -0.1369
11654SOL     OW36402   6.181   5.326   8.403  0.7527 -0.2702 -0.0449
11654SOL    HW136403   6.237   5.248   8.399  1.3862  0.0185  1.9924
11654SOL    HW236404   6.241   5.399   8.391  0.3563 -0.0511 -0.7056
11655SOL     OW36405   7.180   4.486  11.555 -0.1033 -0.4643 -0.5437
11655SOL    HW136406   7.095   4.504  11.516 -0.3732 -1.8062 -0.6242
11655SOL    HW236407   7.201   4.397  11.527 -0.2647 -1.5022  2.2688
11656SOL     OW36408   2.657   5.776   6.071  0.0425  0.5391  0.0952
11656SOL    HW136409   2.573   5.736   6.050  0.5434 -0.2138 -0.5535
11656SOL    HW236410   2.636   5.846   6.133 -1.5537  2.9201 -2.8637
11657SOL     OW36411   5.043   7.336   2.512  0.1192 -0.0743 -0.2888
11657SOL    HW136412   5.026   7.244   2.492 -1.4678  0.0208  0.5226
11657SOL    HW236413   5.082   7.335   2.599  1.3883 -0.0453 -0.8275
11658SOL     OW36414   7.885   7.779   3.177 -0.3235  0.3034 -0.0870
11658SOL    HW136415   7.944   7.704   3.187 -1.6669 -0.8454 -0.4361
11658SOL    HW236416   7.889   7.800   3.084 -1.5708 -0.7499 -0.3995
11659SOL     OW36417   4.462   0.737   4.840  0.2951 -0.3112 -0.0776
11659SOL    HW136418   4.488   0.684   4.765 -0.5189 -1.0024  0.1166
11659SOL    HW236419   4.430   0.674   4.905 -0.3784  0.3776  0.2854
11660SOL     OW36420   0.971   0.158   2.600 -0.2379 -0.4211  0.0810
11660SOL    HW136421   0.950   0.191   2.512 -0.4913 -1.5947 -0.3098
11660SOL    HW236422   1.035   0.089   2.584  2.4069  1.5966  1.0739
11661SOL     OW36423   0.506   0.548   9.249 -0.0871 -0.0665  0.8502
11661SOL    HW136424   0.415   0.556   9.223  0.3064 -0.9663 -1.0104
11661SOL    HW236425   0.523   0.454   9.246  0.5186 -0.0534  2.6958
11662SOL     OW36426   3.265   7.681   1.575  0.1932 -0.2757 -0.1151
11662SOL    HW136427   3.353   7.708   1.601  0.7856 -1.8354 -0.3641
11662SOL    HW236428   3.246   7.732   1.496  0.8391  0.1543  0.0031
11663SOL     OW36429   0.354   5.818  10.018  0.0199 -0.0744  0.2123
11663SOL    HW136430   0.320   5.764  10.089 -0.1964  0.5269  0.5735
11663SOL    HW236431   0.333   5.769   9.938 -3.2215  0.9693  0.2610
11664SOL     OW36432   1.222   6.632   0.389  0.1360  0.1357 -0.2678
11664SOL    HW136433   1.209   6.704   0.450  0.6497 -0.0832  0.1145
11664SOL    HW236434   1.312   6.642   0.359  0.9949 -1.5785  1.4814
11665SOL     OW36435   3.664   0.953   3.799 -0.0723  0.3316  0.2251
11665SOL    HW136436   3.683   0.870   3.755 -1.3895 -0.0300  0.3097
11665SOL    HW236437   3.573   0.946   3.827 -0.1344  1.7085  0.4648
11666SOL     OW36438   5.492   2.293  10.063 -0.5262  0.1975 -0.2390
11666SOL    HW136439   5.581   2.317  10.091 -0.6386  0.3559 -0.0172
11666SOL    HW236440   5.490   2.198  10.068 -0.7716  0.2500  0.9891
11667SOL     OW36441   2.487   4.338   4.347  0.2832  0.0447  0.3069
11667SOL    HW136442   2.559   4.348   4.284  0.4687 -2.3408  0.0313
11667SOL    HW236443   2.529   4.315   4.429 -0.1131 -0.9043  0.2601
11668SOL     OW36444   4.067   3.738   1.530 -0.2416  0.1510 -0.5076
11668SOL    HW136445   4.015   3.818   1.530  0.8778  0.9085  0.3602
11668SOL    HW236446   4.120   3.743   1.451 -0.4247  0.0900 -0.6349
11669SOL     OW36447   0.934   1.268   4.862  0.1716 -1.2830  0.4860
11669SOL    HW136448   0.932   1.309   4.949 -0.0767 -0.9984  0.3472
11669SOL    HW236449   0.884   1.187   4.873 -2.7935  0.3342 -0.1754
11670SOL     OW36450   1.015   3.586   6.465  0.8295 -0.0509 -0.3848
11670SOL    HW136451   0.985   3.621   6.549  3.2668  0.2180  0.4630
11670SOL    HW236452   1.019   3.663   6.407  0.9155  0.1049 -0.1741
11671SOL     OW36453   5.486   3.336   2.955  0.3293  0.0921 -0.1946
11671SOL    HW136454   5.477   3.415   3.009  1.7574 -1.6024  2.7783
11671SOL    HW236455   5.551   3.359   2.889 -0.6245  1.9181 -0.5652
11672SOL     OW36456   7.648   3.164   9.631  0.5598  0.1196 -0.1588
11672SOL    HW136457   7.724   3.214   9.603  1.5221 -0.6371  1.0421
11672SOL    HW236458   7.575   3.201   9.580  1.6791  0.9685 -1.1950
11673SOL     OW36459   4.135   6.169   6.574 -0.8090 -0.0119  0.1666
11673SOL    HW136460   4.078   6.242   6.552 -1.0944 -0.4121 -0.4422
11673SOL    HW236461   4.088   6.091   6.543  0.7234 -0.2499 -1.7336
11674SOL     OW36462   7.456   0.189   3.480 -0.3904 -0.2021 -0.1896
11674SOL    HW136463   7.408   0.268   3.505  0.4982  0.2676  0.0685
11674SOL    HW236464   7.498   0.212   3.397 -0.7837 -0.6862 -0.5275
11675SOL     OW36465   6.681   3.456   3.257  0.0004 -0.3962  0.1958
11675SOL    HW136466   6.587   3.453   3.274 -0.4435  0.9268 -1.7288
11675SOL    HW236467   6.690   3.504   3.175  2.4258  0.4336  0.8314
11676SOL     OW36468   3.088   5.107   4.765  0.5809  0.5400  0.2232
11676SOL    HW136469   3.137   5.041   4.814 -0.3737  0.5095  1.1720
11676SOL    HW236470   3.131   5.189   4.787  0.1971  0.5187  1.0805
11677SOL     OW36471   4.110   5.819   2.930 -0.4187 -0.0474 -0.3756
11677SOL    HW136472   4.021   5.846   2.907 -1.0782 -2.1385 -0.4882
11677SOL    HW236473   4.128   5.744   2.873  1.8991  1.0239 -1.2083
11678SOL     OW36474   7.209   1.869   7.787  0.0004 -0.0691 -0.7668
11678SOL    HW136475   7.233   1.940   7.845 -0.3013  0.1959 -0.9583
11678SOL    HW236476   7.200   1.792   7.844 -1.6907  0.4907 -0.2279
11679SOL     OW36477   6.907   6.163   2.900  0.2845 -0.3656  0.0420
11679SOL    HW136478   6.828   6.215   2.893  0.8654  0.7108  1.1555
11679SOL    HW236479   6.913   6.117   2.817  0.4773  2.4227 -1.6148
11680SOL     OW36480   0.431   1.265  12.342 -0.0688 -0.2780  0.1727
11680SOL    HW136481   0.349   1.216  12.352  0.5288 -1.2509  0.4376
11680SOL    HW236482   0.478   1.218  12.273  0.4743 -0.0168  0.3611
11681SOL     OW36483   4.496   0.332  12.229  0.4146 -0.2085  0.1805
11681SOL    HW136484   4.508   0.415  12.183  1.2275 -0.9253 -0.9349
11681SOL    HW236485   4.569   0.277  12.201 -1.0349 -1.9208 -0.4933
11682SOL     OW36486   7.052   1.467   6.934  0.7334 -0.5105 -0.2178
11682SOL    HW136487   7.099   1.413   6.998  0.1685  0.7538  1.3132
11682SOL    HW236488   7.099   1.550   6.933 -1.1698  0.6582  1.0798
11683SOL     OW36489   7.035   1.479   8.941 -0.4761 -0.6104 -0.7080
11683SOL    HW136490   7.045   1.420   8.866 -0.6425  0.1812 -1.3685
11683SOL    HW236491   6.998   1.559   8.903  0.8985  0.3692 -0.0316
11684SOL     OW36492   7.798   4.825   8.706 -0.4390  0.0703 -0.5134
11684SOL    HW136493   7.754   4.810   8.790  0.1243  2.1039  0.1987
11684SOL    HW236494   7.800   4.739   8.665 -0.2064 -1.1073  1.8026
11685SOL     OW36495   0.587   1.637   4.560 -0.3480 -0.0694 -0.6776
11685SOL    HW136496   0.523   1.570   4.585 -1.2301  0.4202 -1.5460
11685SOL    HW236497   0.539   1.720   4.573  0.9662  0.4819  1.1492
11686SOL     OW36498   3.624   2.593   6.031 -0.2417  0.2490 -0.1280
11686SOL    HW136499   3.638   2.685   6.010  3.3271 -0.4108 -1.3284
11686SOL    HW236500   3.532   2.578   6.013 -0.5318  3.1502 -1.6641
11687SOL     OW36501   6.288   5.688   6.487 -0.2967  0.2325  0.5382
11687SOL    HW136502   6.276   5.597   6.513 -0.3462  0.8157  2.7466
11687SOL    HW236503   6.199   5.721   6.474 -0.3174  0.1614  0.5004
11688SOL     OW36504   7.787   5.588  11.865 -0.6715  0.3524  0.3932
11688SOL    HW136505   7.700   5.547  11.864 -0.8525  0.7389 -0.1278
11688SOL    HW236506   7.798   5.617  11.955 -0.2279 -1.4812  0.9858
11689SOL     OW36507   1.459   5.177   4.823 -0.1294 -0.0677  0.3791
11689SOL    HW136508   1.549   5.187   4.794 -0.4819 -1.4911 -1.3855
11689SOL    HW236509   1.424   5.267   4.821  1.1913  0.4843  0.9749
11690SOL     OW36510   4.881   7.207   2.239 -0.5743  0.1399  0.3488
11690SOL    HW136511   4.884   7.222   2.145  1.4720 -0.9379  0.2000
11690SOL    HW236512   4.879   7.112   2.249  0.1722  0.2097  1.3749
11691SOL     OW36513   6.003   3.798  12.377  0.0446  0.3088  0.6952
11691SOL    HW136514   6.030   3.866  12.315  4.4515  1.9738  3.9434
11691SOL    HW236515   5.989   3.845  12.459 -0.1949 -2.3802  2.3017
11692SOL     OW36516   5.749   2.359   7.289 -0.0412 -0.4682  0.1021
11692SOL    HW136517   5.669   2.356   7.341 -0.0396  1.3078  0.2846
11692SOL    HW236518   5.820   2.352   7.353 -0.0548 -0.6562  0.0946
11693SOL     OW36519   4.518   7.366   3.737 -0.2472  0.0811  0.3363
11693SOL    HW136520   4.517   7.382   3.831 -1.6956 -1.0983  0.5632
11693SOL    HW236521   4.483   7.446   3.698 -0.3356  0.3012  0.8607
11694SOL     OW36522   4.297   4.331   2.363  0.0881  0.4239 -0.4072
11694SOL    HW136523   4.250   4.414   2.360 -0.6975  0.0733  1.2200
11694SOL    HW236524   4.229   4.265   2.356  0.3581 -0.0947  1.5338
11695SOL     OW36525   3.532   7.071   9.413  0.4344  0.2727 -0.1094
11695SOL    HW136526   3.607   7.094   9.358 -0.5931  0.5127 -1.4667
11695SOL    HW236527   3.514   6.980   9.392 -0.8983  0.7889 -1.3599
11696SOL     OW36528   0.883   4.345   4.529 -0.6369  0.5176 -0.9498
11696SOL    HW136529   0.899   4.259   4.490 -1.4105  1.3822 -3.3603
11696SOL    HW236530   0.912   4.407   4.462 -0.8013  2.1513  0.4236
11697SOL     OW36531   0.783   1.588   4.990  0.3900 -0.4370 -0.1443
11697SOL    HW136532   0.842   1.543   5.050  1.8248  0.5479 -0.7560
11697SOL    HW236533   0.841   1.640   4.934 -1.0609  0.4457 -0.8818
11698SOL     OW36534   3.427   2.425   2.424  0.0215 -0.7782  0.1945
11698SOL    HW136535   3.393   2.477   2.351  1.4784 -0.2976 -0.1763
11698SOL    HW236536   3.521   2.440   2.422  0.1329 -1.0622  1.9467
11699SOL     OW36537   5.937   2.549  10.892  0.3080  0.4607  0.0405
11699SOL    HW136538   5.934   2.502  10.809 -0.6143  1.5509 -0.5896
11699SOL    HW236539   5.898   2.489  10.955 -2.4802  0.9109 -1.0738
11700SOL     OW36540   1.450   0.315   2.096  0.6141  0.4745  0.6577
11700SOL    HW136541   1.425   0.406   2.079  1.8274  0.6968 -0.0985
11700SOL    HW236542   1.398   0.289   2.171 -0.7157  1.3752  0.0805
11701SOL     OW36543   0.982   3.461  10.581 -0.4954 -0.1867  0.1490
11701SOL    HW136544   0.905   3.514  10.560 -0.7049 -0.1083  1.0523
11701SOL    HW236545   0.947   3.377  10.611 -0.3701  0.4809  2.4019
11702SOL     OW36546   0.101   1.218   7.965  0.0539 -0.2076  0.1444
11702SOL    HW136547   0.156   1.205   8.042 -0.4337 -2.5247  0.1550
11702SOL    HW236548   0.089   1.131   7.929  0.4507  0.8340 -2.7302
11703SOL     OW36549   3.520   5.274   5.415 -0.0104  0.7652 -0.8690
11703SOL    HW136550   3.592   5.219   5.386 -0.3487 -0.0007 -0.2833
11703SOL    HW236551   3.442   5.221   5.402 -0.2239  0.5571  0.9420
11704SOL     OW36552   0.583   5.104   4.135  0.7484  0.2931  0.3510
11704SOL    HW136553   0.613   5.071   4.050 -1.0823  1.1896 -0.6839
11704SOL    HW236554   0.596   5.030   4.195 -0.2879 -1.2590 -1.2457
11705SOL     OW36555   2.364   4.487  11.694  0.8171  0.5354 -0.4000
11705SOL    HW136556   2.383   4.553  11.627 -0.5579 -0.3662 -1.7463
11705SOL    HW236557   2.282   4.516  11.734 -0.6919 -1.1169 -2.1315
11706SOL     OW36558   3.044   7.224  12.278  0.2040 -0.4136  0.2123
11706SOL    HW136559   3.129   7.255  12.310  0.2983  0.6270 -0.9873
11706SOL    HW236560   3.046   7.240  12.184 -1.5470  0.1879  0.2478
11707SOL     OW36561   1.155   1.652   7.772  0.6422  0.2519 -0.3757
11707SOL    HW136562   1.235   1.702   7.786  1.7137 -1.4775 -0.0396
11707SOL    HW236563   1.182   1.576   7.720  0.1791 -2.5464  3.0514
11708SOL     OW36564   4.023   6.977   5.008 -0.0481 -0.9300  0.1042
11708SOL    HW136565   4.005   6.925   4.930  0.4928 -2.1699  0.7634
11708SOL    HW236566   3.940   7.022   5.027  0.4690  1.3748 -2.5209
11709SOL     OW36567   6.108   4.751   9.955  0.5049 -0.3792  0.3147
11709SOL    HW136568   6.054   4.687   9.908  1.7933 -1.4131  0.1876
11709SOL    HW236569   6.181   4.700   9.989  1.1945  0.9170  0.8333
11710SOL     OW36570   4.129   7.144  11.284 -0.7054 -0.2231 -0.4006
11710SOL    HW136571   4.104   7.232  11.312 -1.0075 -0.3474 -0.2782
11710SOL    HW236572   4.065   7.087  11.325 -0.9278 -0.4375 -1.0435
11711SOL     OW36573   5.729   1.441   6.480 -0.3371 -0.1570  0.1113
11711SOL    HW136574   5.783   1.519   6.478 -1.0230  0.3147 -0.6140
11711SOL    HW236575   5.646   1.468   6.440 -0.6553 -1.1980  0.0376
11712SOL     OW36576   2.660   0.771  10.558 -0.1983 -0.1657 -0.1455
11712SOL    HW136577   2.709   0.728  10.488 -1.6608  0.2049 -1.4715
11712SOL    HW236578   2.584   0.715  10.573 -1.2010  0.9927 -0.6512
11713SOL     OW36579   2.381   6.299   4.286 -0.4175  0.0767 -0.2443
11713SOL    HW136580   2.423   6.276   4.368 -0.6956 -1.1529 -0.4348
11713SOL    HW236581   2.433   6.255   4.219 -1.5543 -0.8485 -0.5389
11714SOL     OW36582   2.087   4.677  10.836 -0.0661  0.1860 -0.3174
11714SOL    HW136583   2.040   4.758  10.854  0.2482 -0.3006  3.2925
11714SOL    HW236584   2.176   4.706  10.812 -0.4425  0.9187 -0.8793
11715SOL     OW36585   7.683   3.203   1.359  0.7045 -0.2193 -0.4657
11715SOL    HW136586   7.727   3.287   1.347 -0.3252  0.3814 -0.1904
11715SOL    HW236587   7.609   3.223   1.417  0.3024 -1.2686 -0.5979
11716SOL     OW36588   4.542   7.881   2.983 -0.1545 -0.8585  0.2973
11716SOL    HW136589   4.534   7.828   3.062  0.9377 -1.6646 -0.0916
11716SOL    HW236590   4.576   7.965   3.013 -2.2491 -0.2038  0.9667
11717SOL     OW36591   0.055   0.349   0.144  0.3006 -0.5770 -0.1428
11717SOL    HW136592   0.064   0.409   0.219 -0.7536 -0.5690 -0.0171
11717SOL    HW236593  -0.007   0.392   0.086 -1.1837 -1.9419  0.3687
11718SOL     OW36594   4.221   3.995   7.909 -0.2724 -0.1817 -0.5169
11718SOL    HW136595   4.230   3.948   7.826 -0.3082  0.1912 -0.7320
11718SOL    HW236596   4.230   4.087   7.886  0.7209 -0.1236  0.0238
11719SOL     OW36597   7.019   3.413   2.573 -0.6138 -0.4620  0.1117
11719SOL    HW136598   7.004   3.498   2.532 -0.9622  0.4108  1.9641
11719SOL    HW236599   7.104   3.422   2.617 -0.8318 -0.9364  0.6446
11720SOL     OW36600   7.331   7.318   3.796  0.8327 -0.3875  0.1368
11720SOL    HW136601   7.250   7.315   3.745 -0.3896  1.5450  1.8015
11720SOL    HW236602   7.382   7.388   3.755 -0.7879  2.2139  2.2388
11721SOL     OW36603   2.246   7.644   9.236  0.1219 -0.3676  0.1038
11721SOL    HW136604   2.280   7.731   9.212 -1.2655 -0.1633 -1.3036
11721SOL    HW236605   2.273   7.587   9.163  1.4316 -1.2637  1.2412
11722SOL     OW36606   3.070   4.933   3.330  0.3723 -0.6036  0.4543
11722SOL    HW136607   3.044   4.893   3.413  0.0842  2.3741  1.9439
11722SOL    HW236608   3.002   4.998   3.312  2.5750  1.8074  0.2275
11723SOL     OW36609   0.121   4.456   7.028  0.2451 -0.6227 -0.3673
11723SOL    HW136610   0.075   4.411   7.099 -0.4790  0.2104 -0.2871
11723SOL    HW236611   0.051   4.494   6.975  0.8142 -0.4870 -1.0236
11724SOL     OW36612   6.089   7.955   0.686  0.0393  0.4344 -0.2225
11724SOL    HW136613   6.169   7.963   0.634  0.7829 -0.1729  0.8024
11724SOL    HW236614   6.089   7.865   0.718 -0.8552  0.5412  0.1093
11725SOL     OW36615   1.717   0.891   3.311 -0.4174 -0.0543 -0.0583
11725SOL    HW136616   1.802   0.854   3.335  0.0734  0.0157 -1.6269
11725SOL    HW236617   1.695   0.948   3.385  0.9646  0.0492  0.3090
11726SOL     OW36618   2.635   3.852   4.797 -0.1327 -0.0166 -0.2463
11726SOL    HW136619   2.683   3.930   4.770 -0.6944  0.6022  0.4901
11726SOL    HW236620   2.703   3.786   4.815  0.3816  0.5382 -0.1404
11727SOL     OW36621   0.640   7.113  12.013 -0.4273  0.3515 -0.0611
11727SOL    HW136622   0.623   7.103  12.107 -0.5483  1.0062 -0.0076
11727SOL    HW236623   0.554   7.100  11.972 -0.4057  0.2296 -0.0674
11728SOL     OW36624   6.919   4.160   7.256  0.1692  0.3407  0.5811
11728SOL    HW136625   6.921   4.076   7.208  2.0552  1.0959 -0.7560
11728SOL    HW236626   6.901   4.135   7.347 -0.3193 -1.4262  0.0398
11729SOL     OW36627   5.179   3.318   2.032  0.6068  0.0424 -0.5218
11729SOL    HW136628   5.235   3.341   1.957  0.4685 -0.8113 -0.9037
11729SOL    HW236629   5.231   3.257   2.083  0.0305 -0.7721 -0.8875
11730SOL     OW36630   4.377   7.732   5.008 -0.1384  0.2290 -0.1410
11730SOL    HW136631   4.376   7.792   4.933 -0.1387  0.3998 -0.0054
11730SOL    HW236632   4.452   7.675   4.992 -0.7265 -0.3943 -0.7829
11731SOL     OW36633   6.361   2.505   2.456 -0.2894 -0.8248 -0.3959
11731SOL    HW136634   6.376   2.412   2.437 -0.2610 -1.3527  1.9227
11731SOL    HW236635   6.448   2.538   2.478 -0.8543 -1.5549  3.6643
11732SOL     OW36636   1.262   6.533   1.165  0.1407  0.5636 -0.0791
11732SOL    HW136637   1.271   6.503   1.255  0.4185  2.1932  0.4816
11732SOL    HW236638   1.167   6.540   1.151  0.1028  0.8718  0.3065
11733SOL     OW36639   5.778   2.676   2.883 -0.1181 -0.2647 -0.1955
11733SOL    HW136640   5.757   2.768   2.870  0.5613 -0.1185 -0.2954
11733SOL    HW236641   5.713   2.645   2.946 -0.7843  0.1032 -0.6885
11734SOL     OW36642   0.580   2.953   0.424 -0.3318  0.6464  0.4196
11734SOL    HW136643   0.529   3.032   0.407 -1.9016 -0.0293  1.7908
11734SOL    HW236644   0.516   2.887   0.451  0.7742 -1.4829 -1.7415
11735SOL     OW36645   7.560   3.462   2.181  0.1967  0.2155 -0.1145
11735SOL    HW136646   7.485   3.512   2.215 -1.8545 -1.2973 -2.1709
11735SOL    HW236647   7.571   3.391   2.244  0.2929  0.7450  0.4838
11736SOL     OW36648   5.589   0.049   2.629  0.1018 -0.6050  0.0645
11736SOL    HW136649   5.664   0.034   2.572  0.2435 -1.3564  0.4322
11736SOL    HW236650   5.627   0.069   2.714 -0.1109  0.2556 -0.0384
11737SOL     OW36651   6.916   1.371   9.443 -0.0753  0.6867 -0.1971
11737SOL    HW136652   6.948   1.374   9.352  3.0575  0.3054  0.7800
11737SOL    HW236653   6.897   1.278   9.458 -0.2970  0.7046 -0.3600
11738SOL     OW36654   6.959   4.499   5.715  1.0227  0.0860  0.1432
11738SOL    HW136655   6.954   4.530   5.805 -2.4761  1.2309 -0.2664
11738SOL    HW236656   7.006   4.567   5.668  1.1845  0.4130  0.7728
11739SOL     OW36657   4.069   1.635   2.574  0.0085 -0.0538  0.2848
11739SOL    HW136658   4.157   1.599   2.587 -0.1162 -0.4474  0.0401
11739SOL    HW236659   4.074   1.678   2.488 -0.1647 -0.4607  0.0702
11740SOL     OW36660   4.874   5.204   2.256 -0.5348 -0.1599 -0.3428
11740SOL    HW136661   4.911   5.141   2.318 -3.0278 -0.7490  0.6989
11740SOL    HW236662   4.947   5.227   2.199  1.2542 -1.5576  1.2190
11741SOL     OW36663   3.770   6.872  11.480 -0.0421 -0.2459 -0.7701
11741SOL    HW136664   3.700   6.886  11.416  0.5057 -1.5428 -1.6992
11741SOL    HW236665   3.834   6.818  11.433  0.8860 -0.3137  0.5390
11742SOL     OW36666   5.646   3.915   5.183  0.2185 -0.0452 -0.1425
11742SOL    HW136667   5.714   3.874   5.235  0.8909 -0.2146 -1.1378
11742SOL    HW236668   5.668   3.894   5.092 -1.4911 -0.6284 -0.4583
11743SOL     OW36669   0.196   1.174   4.511 -0.2019  0.2685  1.1701
11743SOL    HW136670   0.259   1.102   4.515  0.2206  0.5957  0.5489
11743SOL    HW236671   0.125   1.147   4.569  0.2627 -0.3470  1.4601
11744SOL     OW36672   3.383   4.663   8.238 -0.2267 -0.4563 -0.2033
11744SOL    HW136673   3.348   4.624   8.317 -0.2158  2.6446  1.4834
11744SOL    HW236674   3.373   4.758   8.251 -0.3246  0.2138 -3.9667
11745SOL     OW36675   5.987   3.301   5.462  0.2044 -0.3653  0.1256
11745SOL    HW136676   6.079   3.312   5.488 -0.3138  0.5275  1.7078
11745SOL    HW236677   5.953   3.238   5.525 -0.2958 -0.6473 -0.4215
11746SOL     OW36678   1.148   1.793   7.377 -0.0303 -0.6876  0.0041
11746SOL    HW136679   1.100   1.848   7.315 -0.8956 -2.8756 -1.3644
11746SOL    HW236680   1.228   1.842   7.395 -1.3612  1.6685  0.0154
11747SOL     OW36681   0.276   6.312   1.046  0.0858 -0.3574  0.2517
11747SOL    HW136682   0.257   6.287   0.956 -2.6234 -0.3118  0.7219
11747SOL    HW236683   0.288   6.407   1.043  1.8699 -0.5644 -0.2806
11748SOL     OW36684   0.130   5.538   2.290 -0.4105  0.2900 -0.1345
11748SOL    HW136685   0.035   5.547   2.287 -0.6754 -1.3373  1.7471
11748SOL    HW236686   0.153   5.556   2.381  1.1599  0.9952 -0.6260
11749SOL     OW36687   2.261   3.275   3.348 -0.5322 -0.7575  0.5216
11749SOL    HW136688   2.294   3.208   3.288 -2.6390 -1.1829 -0.2458
11749SOL    HW236689   2.205   3.227   3.409  0.8853 -0.1960  2.3459
11750SOL     OW36690   2.307   7.152   1.057  0.3452 -0.3805 -0.3288
11750SOL    HW136691   2.305   7.246   1.078 -0.1797 -0.6868  1.0750
11750SOL    HW236692   2.382   7.118   1.105  0.1352 -0.8027 -0.2956
11751SOL     OW36693   4.420   7.794   1.656  0.3125 -0.7562 -0.1947
11751SOL    HW136694   4.503   7.789   1.608 -0.2860  0.2835 -1.4124
11751SOL    HW236695   4.375   7.713   1.635  0.1915 -0.4494 -1.1773
11752SOL     OW36696   5.200   6.596   1.126 -0.4113 -0.2526 -0.2111
11752SOL    HW136697   5.145   6.667   1.094 -1.8596 -0.7831  0.9839
11752SOL    HW236698   5.265   6.583   1.057 -0.9602  1.2831 -1.0740
11753SOL     OW36699   4.977   0.859   3.381  0.6787 -0.1359  0.1024
11753SOL    HW136700   4.947   0.947   3.357 -0.4679  0.1418  2.2621
11753SOL    HW236701   5.067   0.856   3.351  0.4302  1.3908 -0.9552
11754SOL     OW36702   6.618   5.064   5.178 -0.3567  0.5309  0.0681
11754SOL    HW136703   6.611   4.969   5.189 -2.0823  0.3208 -2.0582
11754SOL    HW236704   6.571   5.101   5.253  1.2105 -0.2173  1.4713
11755SOL     OW36705   2.001   4.762  10.149 -0.1641  0.5515 -0.1008
11755SOL    HW136706   1.918   4.752  10.195 -1.0268 -1.9670 -2.0125
11755SOL    HW236707   2.063   4.710  10.201 -0.9668 -1.6479 -1.2029
11756SOL     OW36708   5.755   1.043   5.774  0.0587  0.3638 -0.1804
11756SOL    HW136709   5.668   1.006   5.760  0.4121 -0.8195  0.5728
11756SOL    HW236710   5.812   0.992   5.716  0.6031 -0.5404  1.1102
11757SOL     OW36711   7.818   7.294   3.435 -0.2832  0.3104 -0.3068
11757SOL    HW136712   7.827   7.309   3.529  0.7086 -3.5987  0.4187
11757SOL    HW236713   7.907   7.287   3.402 -0.6207  1.1258 -1.4684
11758SOL     OW36714   1.605   5.883   0.244 -0.0404  0.3818 -0.4320
11758SOL    HW136715   1.532   5.899   0.304  0.2521  2.7336 -0.6472
11758SOL    HW236716   1.682   5.875   0.301 -0.3173 -1.5049 -0.2518
11759SOL     OW36717   7.075   4.319   1.876 -0.4927  1.0780  0.1217
11759SOL    HW136718   7.101   4.346   1.964  0.5643  0.6745 -0.0507
11759SOL    HW236719   6.997   4.266   1.889  0.2607  0.1285  0.9377
11760SOL     OW36720   5.399   6.648   2.805 -0.7341  0.2714 -0.0487
11760SOL    HW136721   5.473   6.702   2.778  2.4402 -1.8448  3.3048
11760SOL    HW236722   5.383   6.672   2.897 -0.4722 -2.8979  0.9747
11761SOL     OW36723   5.935   3.296  10.841  0.4156  0.6890  0.1299
11761SOL    HW136724   5.863   3.235  10.829  0.3796  0.5074  1.1262
11761SOL    HW236725   5.992   3.283  10.766 -1.2661  1.8138 -1.4169
11762SOL     OW36726   1.160   3.048   2.875  0.2226 -0.0219  0.3589
11762SOL    HW136727   1.158   2.970   2.820 -1.6130 -0.1911  0.6112
11762SOL    HW236728   1.104   3.111   2.829  2.1785  1.4220 -0.1711
11763SOL     OW36729   6.553   2.025  11.379 -0.2990  0.6359 -0.5539
11763SOL    HW136730   6.523   2.024  11.289 -1.3364  1.8636 -0.2456
11763SOL    HW236731   6.474   2.034  11.432  0.1357 -1.4865  0.5919
11764SOL     OW36732   3.217   6.551  12.323 -0.7211 -0.2028 -0.1702
11764SOL    HW136733   3.127   6.573  12.299 -0.6639 -0.3999 -0.5709
11764SOL    HW236734   3.258   6.524  12.241 -0.1537  0.3648 -0.0865
11765SOL     OW36735   1.288   6.461   3.743  0.4010  0.1905  0.0682
11765SOL    HW136736   1.293   6.557   3.741  0.0103  0.2052 -0.5555
11765SOL    HW236737   1.327   6.437   3.826  1.7916  0.8177 -0.3643
11766SOL     OW36738   7.208   6.121   2.956  0.2904 -0.2133 -0.0140
11766SOL    HW136739   7.215   6.126   3.051 -0.4961 -0.6156  0.0780
11766SOL    HW236740   7.114   6.126   2.939  0.5193  2.1591 -0.9258
11767SOL     OW36741   2.731   0.512   6.213  0.6721  0.3517  0.0048
11767SOL    HW136742   2.714   0.517   6.307  2.5433 -1.3333  0.5051
11767SOL    HW236743   2.758   0.600   6.189  2.1051  0.3651  1.4948
11768SOL     OW36744   7.850   3.273  12.217 -0.1006  0.4477 -0.0737
11768SOL    HW136745   7.755   3.262  12.215 -0.4187  2.8126 -0.1539
11768SOL    HW236746   7.869   3.339  12.151  1.2503  1.9611  1.6965
11769SOL     OW36747   4.527   1.946  10.040  0.2275  0.1069 -0.1699
11769SOL    HW136748   4.619   1.960  10.016  0.1394 -0.7118 -1.0312
11769SOL    HW236749   4.507   2.019  10.099  0.0741  3.0907 -3.5390
11770SOL     OW36750   7.581   5.231   2.502 -0.8520  0.2621 -0.3835
11770SOL    HW136751   7.509   5.285   2.469 -0.9564 -0.0637 -0.6977
11770SOL    HW236752   7.657   5.288   2.500 -1.2066  0.7998  0.5081
11771SOL     OW36753   2.106   2.175   2.348 -0.8204 -0.4221  0.0666
11771SOL    HW136754   2.080   2.133   2.430 -0.6085 -1.4865 -0.4062
11771SOL    HW236755   2.026   2.174   2.295 -0.2279 -2.4318 -0.8553
11772SOL     OW36756   2.407   1.474   0.771  0.0647 -0.0342 -0.7167
11772SOL    HW136757   2.452   1.541   0.720 -0.9719  0.2383 -1.3034
11772SOL    HW236758   2.323   1.513   0.793 -0.8798 -1.3804 -1.7152
11773SOL     OW36759   6.384   4.435   5.288  0.2434 -0.8730 -0.2519
11773SOL    HW136760   6.374   4.521   5.249  1.4761 -1.2838 -1.5566
11773SOL    HW236761   6.414   4.452   5.377 -2.7753  0.0810  0.6910
11774SOL     OW36762   5.825   0.749   4.194  1.0086  0.3222  0.1824
11774SOL    HW136763   5.840   0.805   4.118 -0.4637  0.1969 -0.2298
11774SOL    HW236764   5.874   0.669   4.175 -1.5259 -0.8665 -2.0200
11775SOL     OW36765   5.329   7.307   5.674  0.2974 -0.0272 -0.1956
11775SOL    HW136766   5.327   7.388   5.725 -0.0994 -0.5850  0.7089
11775SOL    HW236767   5.398   7.321   5.609  1.4643  0.3671  1.0802
11776SOL     OW36768   7.746   5.120   0.164  0.0920 -0.8024 -0.1611
11776SOL    HW136769   7.689   5.156   0.095 -0.3636  0.6148  0.9107
11776SOL    HW236770   7.783   5.197   0.207  1.3967 -1.6866  0.3634
11777SOL     OW36771   2.963   2.290   5.098 -0.2977  0.0723  0.6866
11777SOL    HW136772   2.981   2.217   5.039  0.0095 -2.5197  3.6941
11777SOL    HW236773   3.031   2.354   5.077  0.3120 -1.0837 -1.1655
11778SOL     OW36774   4.837   3.305   1.464  0.4039  0.2775  0.2282
11778SOL    HW136775   4.882   3.367   1.522 -1.3971  2.0083 -0.1363
11778SOL    HW236776   4.904   3.280   1.400  1.7698  0.1204  1.6395
11779SOL     OW36777   6.418   1.550   8.558 -0.3204  0.5349  0.5249
11779SOL    HW136778   6.381   1.546   8.470 -2.0742  0.2318  1.2439
11779SOL    HW236779   6.425   1.644   8.577  0.4119  0.6108 -0.0491
11780SOL     OW36780   6.671   7.462   4.982  0.3382  0.3434 -0.0699
11780SOL    HW136781   6.729   7.503   5.046  0.8234  0.1979 -0.4137
11780SOL    HW236782   6.606   7.415   5.035  0.3905  0.7044  0.3166
11781SOL     OW36783   7.524   2.422  11.050  0.3337 -0.1386  0.6812
11781SOL    HW136784   7.568   2.505  11.066  0.5676 -0.3452  1.1660
11781SOL    HW236785   7.431   2.443  11.050  0.4339  0.4290 -1.0986
11782SOL     OW36786   3.247   5.081   1.029  0.5686 -0.1624 -0.0655
11782SOL    HW136787   3.301   5.058   1.105 -0.2171  1.4464  1.0422
11782SOL    HW236788   3.280   5.166   1.000  0.6279 -0.5968 -1.3201
11783SOL     OW36789   5.320   3.167   5.462 -0.0740  0.1765 -0.1071
11783SOL    HW136790   5.235   3.203   5.489 -0.4802 -2.0582  1.9455
11783SOL    HW236791   5.314   3.163   5.366 -3.5849 -2.5050 -0.0156
11784SOL     OW36792   1.538   2.304  11.421 -0.2171 -0.6740  0.0282
11784SOL    HW136793   1.562   2.291  11.513  1.8023 -0.0259 -0.3526
11784SOL    HW236794   1.574   2.228  11.376 -0.6180 -0.6592 -0.3226
11785SOL     OW36795   4.051   7.746   7.134 -0.4663  0.1833 -0.1292
11785SOL    HW136796   4.013   7.715   7.216  0.2935 -0.6771 -0.0838
11785SOL    HW236797   4.006   7.697   7.066  0.3951 -0.6906 -0.0863
11786SOL     OW36798   1.551   3.453   6.698  0.2331  0.8206  0.0630
11786SOL    HW136799   1.597   3.517   6.752  0.0431 -0.5770  1.9691
11786SOL    HW236800   1.458   3.465   6.720  0.3320 -1.4732  2.1387
11787SOL     OW36801   5.696   7.270   2.579  0.0960  0.4247  0.2854
11787SOL    HW136802   5.769   7.299   2.634  1.0262 -0.4923 -0.4327
11787SOL    HW236803   5.645   7.212   2.636  0.8145 -0.1884  0.3131
11788SOL     OW36804   3.933   6.587   8.823 -0.0668  0.2712  0.1428
11788SOL    HW136805   3.854   6.637   8.842  0.7567  1.3350  0.8637
11788SOL    HW236806   4.000   6.623   8.882  1.1611 -0.0577 -0.9846
11789SOL     OW36807   3.113   0.784   2.393  0.0013 -0.2698 -0.1957
11789SOL    HW136808   3.122   0.867   2.346  1.8231 -0.9810 -1.2398
11789SOL    HW236809   3.140   0.804   2.483 -1.0481  0.5663 -0.0514
11790SOL     OW36810   3.898   5.339   3.474 -0.2687  0.5220 -0.2824
11790SOL    HW136811   3.868   5.294   3.553 -1.0692 -0.3404 -1.0525
11790SOL    HW236812   3.993   5.328   3.474 -0.1593  1.2700  0.9831
11791SOL     OW36813   3.863   1.259   8.884  0.6120 -0.0823 -0.9083
11791SOL    HW136814   3.822   1.194   8.941  0.8354  0.3732 -0.2009
11791SOL    HW236815   3.953   1.229   8.872  0.6780  0.0208 -0.6865
11792SOL     OW36816   6.896   7.556   4.067 -0.1004  0.2572 -0.2506
11792SOL    HW136817   6.882   7.576   3.974  0.3669  0.3149 -0.3117
11792SOL    HW236818   6.936   7.636   4.102  1.4479 -0.4133 -0.4113
11793SOL     OW36819   7.302   7.861   0.023  0.5381 -0.2179  0.5095
11793SOL    HW136820   7.328   7.930  -0.038  1.6165  0.6039  1.8519
11793SOL    HW236821   7.280   7.787  -0.034  0.1289  0.9434 -0.9295
11794SOL     OW36822   5.311   7.909   9.825  0.1044 -0.3570 -0.2294
11794SOL    HW136823   5.303   7.824   9.781  3.6340 -1.5160  1.0387
11794SOL    HW236824   5.269   7.895   9.910  1.2981 -1.1547  0.2633
11795SOL     OW36825   5.015   2.380   1.882  0.2388  0.2686 -0.0953
11795SOL    HW136826   5.034   2.425   1.800 -1.1380  0.5838 -0.2515
11795SOL    HW236827   4.920   2.376   1.886  0.2790  0.5594  1.6561
11796SOL     OW36828   5.231   5.164   4.405 -0.1300 -0.4048  0.3051
11796SOL    HW136829   5.188   5.145   4.322  0.6994  0.4429 -0.3347
11796SOL    HW236830   5.324   5.154   4.388  0.0288 -0.7240  1.2711
11797SOL     OW36831   0.245   7.435   7.095  0.4976 -0.0177 -0.2547
11797SOL    HW136832   0.319   7.422   7.036 -0.8088 -0.1942 -1.9246
11797SOL    HW236833   0.238   7.530   7.104  1.2021 -0.0138  0.2808
11798SOL     OW36834   6.757   5.459   5.602 -0.5379  0.9346  0.1131
11798SOL    HW136835   6.850   5.451   5.620 -0.6743  0.2984  0.5353
11798SOL    HW236836   6.732   5.375   5.563 -1.1625  0.6747  1.0385
11799SOL     OW36837   1.119   4.022   0.793 -0.0496  0.2870 -0.4131
11799SOL    HW136838   1.062   3.976   0.854  1.3497  1.0465  1.5748
11799SOL    HW236839   1.065   4.093   0.759 -0.5165  0.5720  0.8711
11800SOL     OW36840   4.712   4.190   8.778  0.3487  0.1475  0.7661
11800SOL    HW136841   4.764   4.264   8.808 -0.4692  0.0504  2.5569
11800SOL    HW236842   4.621   4.216   8.794 -0.0950 -0.3121 -0.8055
11801SOL     OW36843   3.433   4.346   6.274  0.5631  0.4357 -0.1209
11801SOL    HW136844   3.470   4.432   6.259 -0.8996  1.1358  0.0635
11801SOL    HW236845   3.343   4.363   6.301  0.2602 -1.1487 -0.0075
11802SOL     OW36846   2.751   4.949  11.766 -0.1972  0.3079 -0.4420
11802SOL    HW136847   2.825   4.977  11.820 -0.6927  0.3750  0.2118
11802SOL    HW236848   2.717   4.872  11.810 -2.1290  1.7598  0.7696
11803SOL     OW36849   5.522   3.503   4.233 -0.6436  0.0862 -0.4294
11803SOL    HW136850   5.542   3.530   4.144 -1.1675  1.4393 -0.1605
11803SOL    HW236851   5.442   3.450   4.225 -0.2454 -0.4677 -0.8342
11804SOL     OW36852   2.525   2.045   5.451 -0.2803  0.3645 -0.7790
11804SOL    HW136853   2.601   1.994   5.422  2.0079  0.6995  3.7060
11804SOL    HW236854   2.511   2.109   5.382  1.0430 -2.0457 -3.4982
11805SOL     OW36855   0.086   6.445   9.383 -0.7797  0.7709  0.0719
11805SOL    HW136856   0.061   6.449   9.475 -0.1535  0.7362  0.2447
11805SOL    HW236857   0.087   6.352   9.362  0.1226  0.7157  0.3242
11806SOL     OW36858   7.846   5.442   8.044  0.5769 -0.2702  0.0752
11806SOL    HW136859   7.905   5.366   8.045  1.0686  0.0671  1.8688
11806SOL    HW236860   7.768   5.412   7.997  1.0397 -1.6619  0.1484
11807SOL     OW36861   7.064   4.723  10.882  0.3162 -0.3516 -0.0294
11807SOL    HW136862   7.055   4.674  10.800  2.2613  0.3065 -0.6743
11807SOL    HW236863   7.123   4.795  10.861  0.3425  0.2053  1.8012
11808SOL     OW36864   4.613   4.901   4.657  0.0964  0.6791  0.0376
11808SOL    HW136865   4.618   4.947   4.574  0.3367 -1.7761 -1.3974
11808SOL    HW236866   4.543   4.946   4.705  0.6782  2.8113 -1.0006
11809SOL     OW36867   5.768   0.871   5.091  0.1034 -0.4891  0.3122
11809SOL    HW136868   5.807   0.954   5.117  1.1455 -0.5264 -1.0199
11809SOL    HW236869   5.726   0.838   5.170  2.0206 -0.0184  1.5747
11810SOL     OW36870   6.938   4.301   9.854 -0.9198 -0.7298  0.4616
11810SOL    HW136871   6.903   4.381   9.895 -1.7007 -0.3593 -0.8790
11810SOL    HW236872   6.988   4.333   9.779 -1.4152 -1.5012 -0.2112
11811SOL     OW36873   5.631   5.280   4.188  0.1011 -0.3151  0.2190
11811SOL    HW136874   5.703   5.219   4.169 -1.7899 -2.2168 -1.2426
11811SOL    HW236875   5.597   5.305   4.102  0.2967  2.2555  0.8120
11812SOL     OW36876   2.378   5.296   8.322 -0.3698 -0.2547 -0.0475
11812SOL    HW136877   2.389   5.258   8.409  1.1918 -1.1935 -0.5881
11812SOL    HW236878   2.393   5.390   8.334 -1.9735 -0.0877  0.9480
11813SOL     OW36879   7.402   0.005   9.185  0.3438  0.2735  0.0897
11813SOL    HW136880   7.473   0.024   9.248 -0.1777 -1.1458  1.1671
11813SOL    HW236881   7.326  -0.013   9.240 -0.3347 -0.2528 -0.9900
11814SOL     OW36882   3.163   1.340   2.178 -0.4647  0.4712  0.2641
11814SOL    HW136883   3.173   1.318   2.270  0.5537 -2.2550 -0.4117
11814SOL    HW236884   3.251   1.369   2.151 -0.3989 -0.0901 -0.1458
11815SOL     OW36885   3.412   1.455   2.517 -0.2910 -0.0766  0.1030
11815SOL    HW136886   3.439   1.394   2.586 -1.6157 -0.1706  0.5537
11815SOL    HW236887   3.494   1.496   2.489  0.4786 -1.2245  0.5829
11816SOL     OW36888   1.353   2.389   7.663 -0.3760 -0.7083  0.2341
11816SOL    HW136889   1.306   2.324   7.610 -0.8724  0.1280 -0.3789
11816SOL    HW236890   1.304   2.392   7.746 -2.4184  1.2505 -0.9417
11817SOL     OW36891   7.230   6.969   8.588 -0.4060 -0.6116  0.3752
11817SOL    HW136892   7.200   6.880   8.572 -0.8078 -0.5109  0.5533
11817SOL    HW236893   7.299   6.960   8.654 -1.6452 -0.6319  1.6855
11818SOL     OW36894   0.218   0.422   9.458 -0.1671 -0.1667  0.1321
11818SOL    HW136895   0.216   0.359   9.530 -0.5466  1.7378  1.8806
11818SOL    HW236896   0.303   0.465   9.466 -0.3613  0.3068 -0.3144
11819SOL     OW36897   1.944   1.251   0.124 -0.2400  0.5805 -0.1182
11819SOL    HW136898   1.852   1.229   0.109  0.6765 -3.0142 -1.5474
11819SOL    HW236899   1.969   1.304   0.048 -1.0188  1.3538  0.1470
11820SOL     OW36900   1.302   6.413   2.231  0.6871  0.0062 -0.0178
11820SOL    HW136901   1.230   6.352   2.241  0.2451  0.2891 -1.3163
11820SOL    HW236902   1.298   6.468   2.310 -0.8397  0.3482 -0.3066
11821SOL     OW36903   0.677   4.768   5.592 -0.0679  0.6324 -0.0705
11821SOL    HW136904   0.624   4.848   5.589 -0.0799  0.5898 -1.0801
11821SOL    HW236905   0.614   4.699   5.611 -0.8096  0.2683 -3.2982
11822SOL     OW36906   3.149   1.632   6.922 -0.0827  0.1769 -0.9458
11822SOL    HW136907   3.166   1.718   6.960 -0.8052 -0.2557  0.4324
11822SOL    HW236908   3.236   1.594   6.910  0.2436  1.0705 -1.5456
11823SOL     OW36909   0.627   2.756  10.392 -0.3559  0.6890  0.1861
11823SOL    HW136910   0.590   2.796  10.313 -1.9166 -1.1001 -0.0466
11823SOL    HW236911   0.647   2.666  10.367  3.4035  1.2742  0.6106
11824SOL     OW36912   7.387   3.457   0.145  0.2042 -0.0951  0.9484
11824SOL    HW136913   7.318   3.517   0.119 -0.3428 -1.3528 -0.7351
11824SOL    HW236914   7.394   3.467   0.240 -2.6257 -0.2611  1.2478
11825SOL     OW36915   6.180   2.878   6.061 -0.0572  0.1203  0.1971
11825SOL    HW136916   6.117   2.931   6.011  2.1564  1.6308 -1.2336
11825SOL    HW236917   6.206   2.809   6.000  0.6914  0.3931  0.1848
11826SOL     OW36918   3.671   0.812   9.294  0.2904 -0.0865  0.3576
11826SOL    HW136919   3.696   0.905   9.302 -2.7351  1.1837 -2.6599
11826SOL    HW236920   3.730   0.778   9.227  0.2714  0.1421  0.2235
11827SOL     OW36921   6.374   1.516   3.891  0.5992 -0.3920  0.1571
11827SOL    HW136922   6.296   1.570   3.880  1.0426 -0.0626 -1.9535
11827SOL    HW236923   6.419   1.553   3.967  0.1090  1.2415 -0.3163
11828SOL     OW36924   5.543   5.313  10.757  0.0578  0.2445 -0.4122
11828SOL    HW136925   5.615   5.261  10.722 -0.4520  0.0366 -1.1761
11828SOL    HW236926   5.519   5.372  10.685 -0.1465  0.7254  0.0393
11829SOL     OW36927   0.760   5.274  11.971 -0.0468 -0.0456  0.2865
11829SOL    HW136928   0.742   5.202  12.031 -0.6258 -0.7663 -0.7172
11829SOL    HW236929   0.809   5.338  12.023  0.5584 -1.2018  1.1597
11830SOL     OW36930   5.316   6.157   1.363  0.3517  0.0160  0.5178
11830SOL    HW136931   5.241   6.210   1.337 -2.0202 -2.3875  1.9876
11830SOL    HW236932   5.311   6.080   1.307  2.0664 -0.0033  0.3356
11831SOL     OW36933   5.253   2.165  12.219  0.0266 -0.1333 -0.2238
11831SOL    HW136934   5.222   2.093  12.165  0.1627  0.7336 -1.5028
11831SOL    HW236935   5.347   2.147  12.231 -0.3941 -1.4070  1.5010
11832SOL     OW36936   6.783   7.878   5.432 -0.1397 -0.5067  0.2466
11832SOL    HW136937   6.865   7.923   5.410  1.7092 -3.7145 -0.0754
11832SOL    HW236938   6.718   7.947   5.434  2.5364  2.2369  0.4654
11833SOL     OW36939   6.064   6.408   2.317  0.3504 -0.0299 -0.1070
11833SOL    HW136940   6.117   6.347   2.265  0.5815 -1.1601  1.3994
11833SOL    HW236941   6.080   6.383   2.408  0.3405  2.2061  0.5821
11834SOL     OW36942   1.305   2.747   7.237 -0.0204  0.0307  0.6495
11834SOL    HW136943   1.230   2.803   7.217 -1.1943 -1.7570 -0.2496
11834SOL    HW236944   1.355   2.745   7.155  0.6868  0.6866  1.0485
11835SOL     OW36945   5.023   2.259   3.725  0.0101  0.5904  0.2062
11835SOL    HW136946   5.066   2.241   3.809  0.3546  0.6001  0.0365
11835SOL    HW236947   4.935   2.225   3.735  0.6638 -1.3434 -0.1520
11836SOL     OW36948   2.329   2.782   8.667 -0.0056 -0.3051 -0.4956
11836SOL    HW136949   2.239   2.804   8.643 -0.1873 -0.2400  0.2423
11836SOL    HW236950   2.381   2.854   8.632 -0.3606  0.2171  0.0318
11837SOL     OW36951   2.478   1.632   3.750  0.4083  0.3287 -0.0477
11837SOL    HW136952   2.543   1.700   3.768  1.4378  0.1536 -2.6259
11837SOL    HW236953   2.405   1.653   3.808  1.8790  1.8187  1.4035
11838SOL     OW36954   4.725   4.537   2.684  0.1128  0.3514  0.1301
11838SOL    HW136955   4.650   4.511   2.738  0.6075  0.5000  0.9009
11838SOL    HW236956   4.739   4.462   2.625 -0.7768  0.4166 -0.1790
11839SOL     OW36957   5.123   7.019  10.032 -0.0901  0.0729  0.7436
11839SOL    HW136958   5.146   7.068   9.953 -0.3443 -0.2631  0.4586
11839SOL    HW236959   5.093   7.086  10.094 -4.5593  0.0534 -1.0194
11840SOL     OW36960   7.765   0.664  10.178  0.5054  0.5007  0.4517
11840SOL    HW136961   7.753   0.704  10.092  3.1741 -1.4642 -1.0003
11840SOL    HW236962   7.796   0.736  10.234 -0.1894  1.5816 -0.5190
11841SOL     OW36963   6.599   1.730   2.550  0.1262 -0.1616 -0.1813
11841SOL    HW136964   6.595   1.825   2.560  0.2043 -0.1536 -0.2300
11841SOL    HW236965   6.683   1.713   2.508  0.7844 -0.3742  1.1635
11842SOL     OW36966   1.891   6.266   1.932 -0.0750 -0.3142  0.2520
11842SOL    HW136967   1.933   6.282   2.017  0.6018 -1.5836  0.1805
11842SOL    HW236968   1.943   6.317   1.870  0.5493 -0.8119  0.3562
11843SOL     OW36969   3.944   0.539   5.745 -0.3539 -0.7946 -0.7188
11843SOL    HW136970   4.025   0.548   5.794 -0.8234 -1.4492  0.2009
11843SOL    HW236971   3.962   0.582   5.661  0.2364  0.9144  0.2488
11844SOL     OW36972   7.815   6.591  10.698 -0.5552 -0.0811  0.4638
11844SOL    HW136973   7.734   6.601  10.648 -1.0121 -0.4932  1.1102
11844SOL    HW236974   7.884   6.617  10.637 -1.1926  0.5641 -0.0000
11845SOL     OW36975   7.049   7.056   0.980 -0.0895  0.2061 -0.2718
11845SOL    HW136976   6.955   7.042   0.977  0.2018 -2.1306 -0.4593
11845SOL    HW236977   7.085   6.989   0.922  1.8714 -1.3361  2.4949
11846SOL     OW36978   4.363   3.442   1.973 -0.1437  0.4008 -1.3448
11846SOL    HW136979   4.305   3.379   2.015 -0.7082  0.6067 -1.7904
11846SOL    HW236980   4.358   3.520   2.028  1.0029 -0.1134 -0.4733
11847SOL     OW36981   3.414   5.370   1.341  0.1522  0.8609  0.0486
11847SOL    HW136982   3.398   5.397   1.432  1.0470 -0.9116  0.8021
11847SOL    HW236983   3.482   5.303   1.349 -1.4126 -1.0672 -1.6851
11848SOL     OW36984   0.539   7.850  11.202  0.2302 -0.1201  0.2769
11848SOL    HW136985   0.594   7.903  11.261 -1.2288 -0.9638  2.5283
11848SOL    HW236986   0.554   7.760  11.231  0.4027 -0.7121 -1.5324
11849SOL     OW36987   7.783   1.228   0.267 -0.0569  0.3959 -0.2515
11849SOL    HW136988   7.867   1.232   0.313  0.5447 -0.4306 -1.2364
11849SOL    HW236989   7.718   1.244   0.336  0.7079 -2.2543  1.2617
11850SOL     OW36990   5.866   7.693   3.245 -0.2014  0.0559 -0.1060
11850SOL    HW136991   5.776   7.681   3.275  0.5224  0.5464  2.5876
11850SOL    HW236992   5.907   7.607   3.256 -0.0877  0.0807 -0.3331
11851SOL     OW36993   4.866   7.609   1.345  0.0124 -0.0964 -0.2513
11851SOL    HW136994   4.961   7.613   1.350  0.0468  1.2652 -1.3951
11851SOL    HW236995   4.845   7.516   1.347  1.3502 -0.4015  0.1592
11852SOL     OW36996   6.750   4.749   0.843 -0.1304  0.1221 -0.2404
11852SOL    HW136997   6.774   4.681   0.780 -1.3316  0.3029 -0.9326
11852SOL    HW236998   6.697   4.705   0.908 -1.9846  0.5811 -1.3768
11853SOL     OW36999   6.504   7.470   1.638  0.1718  0.1060 -0.2527
11853SOL    HW137000   6.427   7.463   1.582  0.0218 -0.1415 -0.0157
11853SOL    HW237001   6.471   7.502   1.722  0.2928 -0.1906 -0.0874
11854SOL     OW37002   5.334   2.422   2.184 -0.0849 -0.8051  0.6169
11854SOL    HW137003   5.396   2.473   2.235 -1.6480  0.4435  1.3501
11854SOL    HW237004   5.382   2.398   2.104  0.4880  2.5138 -0.1722
11855SOL     OW37005   7.676   7.130   3.694  0.0077  0.1103  0.7183
11855SOL    HW137006   7.641   7.093   3.613 -1.0586  0.3733  1.0490
11855SOL    HW237007   7.765   7.159   3.670  0.0801 -0.7242 -0.0865
11856SOL     OW37008   0.202   5.618   6.460 -0.0493  0.4456 -0.2694
11856SOL    HW137009   0.183   5.710   6.446 -1.3801  0.4548  1.3064
11856SOL    HW237010   0.171   5.574   6.381  0.5040  1.3147 -0.9840
11857SOL     OW37011   6.441   2.181   6.650  0.2703  0.3177  0.1661
11857SOL    HW137012   6.470   2.268   6.620  0.7624  0.0580 -0.1263
11857SOL    HW237013   6.439   2.189   6.745  0.4171  0.6200  0.1469
11858SOL     OW37014   2.477   4.237  11.753  0.0885  0.4679  0.2126
11858SOL    HW137015   2.497   4.232  11.847 -2.2263 -0.7168  0.6949
11858SOL    HW237016   2.428   4.318  11.743  0.0246  0.4128  0.0804
11859SOL     OW37017   4.757   1.540  12.085  0.2603  0.1155  0.3655
11859SOL    HW137018   4.824   1.472  12.075 -0.1479 -0.3287  0.5685
11859SOL    HW237019   4.708   1.537  12.003 -0.3936 -0.5482  0.7665
11860SOL     OW37020   4.457   4.842   9.665 -0.5223  0.3627 -0.3766
11860SOL    HW137021   4.383   4.869   9.720 -1.6859 -0.6465 -1.3854
11860SOL    HW237022   4.476   4.753   9.693  0.4004  0.6422 -0.0697
11861SOL     OW37023   2.566   3.668   4.322 -0.3833  0.2608 -0.0111
11861SOL    HW137024   2.555   3.628   4.236 -0.9031 -1.3491  0.7677
11861SOL    HW237025   2.639   3.729   4.311  0.3758 -0.8290 -1.2981
11862SOL     OW37026   0.215   4.339   0.182 -0.2817  0.2088 -0.3250
11862SOL    HW137027   0.206   4.415   0.240 -1.2844  0.1017 -0.3248
11862SOL    HW237028   0.165   4.362   0.104  0.5945  0.1190 -0.9279
11863SOL     OW37029   4.482   4.564   3.180 -0.1416 -0.3370 -0.4333
11863SOL    HW137030   4.499   4.589   3.271 -0.6469  1.2453 -0.7467
11863SOL    HW237031   4.544   4.493   3.163  1.4093  0.7240  0.5176
11864SOL     OW37032   6.859   2.617  12.269  0.4963 -0.2486  0.4208
11864SOL    HW137033   6.774   2.645  12.236  1.3168 -0.8343 -2.5759
11864SOL    HW237034   6.839   2.557  12.341 -1.6588 -0.8033 -0.5526
11865SOL     OW37035   0.429   7.383   5.632  0.0121  0.6697  0.0046
11865SOL    HW137036   0.384   7.315   5.584  0.4008  0.4139 -0.0046
11865SOL    HW237037   0.478   7.431   5.566  1.7357 -0.6016  0.2885
11866SOL     OW37038   4.446   6.672   2.071  0.4845 -0.2967  0.3525
11866SOL    HW137039   4.381   6.740   2.088  0.2004 -0.9335  1.9770
11866SOL    HW237040   4.455   6.671   1.975 -2.0773 -0.3444  0.0366
11867SOL     OW37041   1.012   6.693   2.491  0.2277  0.3907  0.2745
11867SOL    HW137042   1.105   6.714   2.497  0.7764 -2.1201  1.9482
11867SOL    HW237043   0.986   6.672   2.581 -1.5423 -0.5969 -0.4183
11868SOL     OW37044   6.345   6.405   8.189  0.5898  0.2167  0.3035
11868SOL    HW137045   6.332   6.487   8.237  1.4864 -0.2105  1.3396
11868SOL    HW237046   6.259   6.364   8.187  0.1848  1.0623 -0.0047
11869SOL     OW37047   0.064   2.571  10.573 -0.0329 -0.3846 -0.3240
11869SOL    HW137048   0.102   2.659  10.579 -0.2674 -0.2299 -0.9629
11869SOL    HW237049   0.122   2.516  10.624 -0.7885  0.4307  1.4807
11870SOL     OW37050   7.764   7.568   2.584 -0.5323  0.7555 -0.1387
11870SOL    HW137051   7.776   7.653   2.627 -0.3196  0.8426 -0.3710
11870SOL    HW237052   7.755   7.589   2.491 -0.8802  0.5579 -0.1521
11871SOL     OW37053   1.940   0.639   8.879  0.2213 -0.1324  0.5340
11871SOL    HW137054   1.922   0.731   8.859  0.0591 -0.1675  0.5158
11871SOL    HW237055   1.942   0.636   8.974 -0.8099 -0.3032  0.5573
11872SOL     OW37056   6.033   2.656   6.736 -0.0641  0.3645  0.0077
11872SOL    HW137057   5.964   2.714   6.770 -0.2442  0.3270 -0.2925
11872SOL    HW237058   6.025   2.662   6.641  0.7292  0.8179 -0.0405
11873SOL     OW37059   3.217   0.644   9.442  0.1386 -0.2879 -0.4246
11873SOL    HW137060   3.167   0.705   9.496 -1.0502  0.5012 -2.3174
11873SOL    HW237061   3.308   0.658   9.468 -0.4524 -0.7955  2.1446
11874SOL     OW37062   5.212   1.912   9.321 -0.4680  0.2045 -0.3294
11874SOL    HW137063   5.264   1.978   9.274 -0.0844 -1.2267 -2.0486
11874SOL    HW237064   5.132   1.958   9.347  0.4431  1.7333 -0.0930
11875SOL     OW37065   3.234   1.514   5.108  0.1106  0.4001 -0.4935
11875SOL    HW137066   3.223   1.531   5.015  0.9863 -0.0611 -0.6907
11875SOL    HW237067   3.324   1.483   5.117  0.0832  0.5586  0.5238
11876SOL     OW37068   5.469   0.968   8.020  0.0800  0.4995  0.0770
11876SOL    HW137069   5.445   1.060   8.029  0.0802  0.4231  0.9429
11876SOL    HW237070   5.388   0.923   7.998 -0.0753  0.5931  0.4624
11877SOL     OW37071   1.164   0.076  12.190 -0.2046 -0.1344  0.5682
11877SOL    HW137072   1.176  -0.001  12.135  1.9910 -2.2998  3.7528
11877SOL    HW237073   1.077   0.065  12.229  0.1677 -1.1834  1.1469
11878SOL     OW37074   5.773   4.299   1.102 -0.2646 -0.5609 -0.2000
11878SOL    HW137075   5.679   4.278   1.102 -0.3526 -0.1720  0.0715
11878SOL    HW237076   5.783   4.367   1.036 -0.5324  0.9220  1.2107
11879SOL     OW37077   7.928   5.751   1.614  0.5139 -0.1851  0.1308
11879SOL    HW137078   7.837   5.723   1.625  1.1330 -1.8368  1.3523
11879SOL    HW237079   7.954   5.714   1.529 -0.6239  2.3645 -1.4457
11880SOL     OW37080   7.483   0.895   9.536  0.5161 -0.5898  0.2364
11880SOL    HW137081   7.479   0.841   9.457 -0.3374 -0.1875  0.0000
11880SOL    HW237082   7.437   0.975   9.513 -0.5442 -0.8268  1.4293
11881SOL     OW37083   1.055   0.801   6.996  0.1191 -0.1303 -0.2584
11881SOL    HW137084   1.042   0.742   6.922  0.1120 -1.8619  1.0470
11881SOL    HW237085   0.971   0.800   7.042  0.5251 -0.1535  0.4998
11882SOL     OW37086   5.530   1.749   8.430 -0.2456  0.5968  0.2245
11882SOL    HW137087   5.466   1.709   8.371 -0.1584  0.4140  0.2514
11882SOL    HW237088   5.600   1.684   8.436 -0.1024  0.7563  0.2697
11883SOL     OW37089   3.351   4.424   9.611  0.2834 -0.1071  0.4912
11883SOL    HW137090   3.394   4.509   9.619 -0.0381  0.1837 -0.6647
11883SOL    HW237091   3.333   4.415   9.517 -0.2584 -1.1685  0.6827
11884SOL     OW37092   7.649   5.195   7.577 -0.3404  0.7073 -0.2585
11884SOL    HW137093   7.711   5.253   7.533 -0.4195  0.3831 -0.8048
11884SOL    HW237094   7.572   5.193   7.520  0.2366 -1.1295 -1.0737
11885SOL     OW37095   5.268   4.718   6.040  0.0509 -0.3236  0.1540
11885SOL    HW137096   5.233   4.807   6.038  0.7709  0.0072  1.5472
11885SOL    HW237097   5.205   4.669   6.093  0.9020 -0.0644  1.4336
11886SOL     OW37098   3.266   3.958   1.085 -0.7453 -0.1007  0.1208
11886SOL    HW137099   3.314   4.001   1.157  1.1161  0.5421 -1.4028
11886SOL    HW237100   3.193   4.017   1.066 -0.3388  0.5264  0.4623
11887SOL     OW37101   0.380   3.552   6.109  0.2201 -0.0160 -0.1883
11887SOL    HW137102   0.396   3.625   6.048  0.6282  0.9497  1.0203
11887SOL    HW237103   0.291   3.523   6.089  0.2323  0.4698 -1.0348
11888SOL     OW37104   0.825   6.342  11.656 -0.1490 -0.6446 -0.0620
11888SOL    HW137105   0.900   6.401  11.646 -0.7701  0.0176 -0.9960
11888SOL    HW237106   0.755   6.398  11.690 -0.3596 -1.1480  0.3347
11889SOL     OW37107   5.857   5.714  10.473  0.7266 -0.2946 -0.4022
11889SOL    HW137108   5.920   5.731  10.403  0.5427 -0.7671 -0.6854
11889SOL    HW237109   5.860   5.793  10.527  0.6914  0.1849 -1.0816
11890SOL     OW37110   2.016   6.058   3.051 -0.1743  0.2382 -0.1061
11890SOL    HW137111   2.070   6.126   3.010  1.8570 -1.0607  0.2510
11890SOL    HW237112   1.988   6.096   3.134  0.6275  0.7950 -0.0762
11891SOL     OW37113   0.147   7.706   5.025  0.2468 -0.0452  0.0447
11891SOL    HW137114   0.160   7.730   4.933 -0.6990  1.8852  0.3690
11891SOL    HW237115   0.092   7.628   5.021  1.4885 -0.9041 -1.0413
11892SOL     OW37116   7.869   3.128  11.313  0.6446  0.5283 -0.1599
11892SOL    HW137117   7.839   3.119  11.404 -1.6815  1.7376 -0.7222
11892SOL    HW237118   7.829   3.054  11.267  0.7940  0.6102 -0.4239
11893SOL     OW37119   1.522   0.521   0.170 -0.2083  0.1536  0.4481
11893SOL    HW137120   1.617   0.522   0.158 -0.0133 -0.8833  1.7443
11893SOL    HW237121   1.507   0.565   0.254 -0.9496  0.8811 -0.0395
11894SOL     OW37122   3.394   0.612  12.005  0.0860  0.5336 -0.0791
11894SOL    HW137123   3.429   0.615  11.916  1.0483 -1.2222  0.1827
11894SOL    HW237124   3.470   0.625  12.061  0.0052 -1.1886  0.4869
11895SOL     OW37125   2.487   0.880  12.287 -0.1609 -0.5235 -0.2553
11895SOL    HW137126   2.581   0.893  12.284 -0.1530 -0.6051 -0.3751
11895SOL    HW237127   2.475   0.786  12.271 -0.2534 -0.5440 -0.0738
11896SOL     OW37128   6.549   3.436   0.139 -0.0273  0.4541  0.3563
11896SOL    HW137129   6.459   3.403   0.127  0.2516 -0.3010  0.3111
11896SOL    HW237130   6.583   3.386   0.212  0.3033  0.8770  0.4944
11897SOL     OW37131   1.149   1.396   6.907 -0.0332 -0.2256  0.5162
11897SOL    HW137132   1.178   1.305   6.910 -1.2392 -0.6353  0.1419
11897SOL    HW237133   1.195   1.437   6.981  2.2408 -0.5785 -0.6197
11898SOL     OW37134   4.721   1.817   6.140  0.2665 -0.3094 -0.0287
11898SOL    HW137135   4.779   1.821   6.216  0.7601 -1.3677 -0.3388
11898SOL    HW237136   4.751   1.887   6.083 -0.0960  0.4853  0.7207
11899SOL     OW37137   4.218   0.213   5.421  1.1371  0.5098 -0.0658
11899SOL    HW137138   4.271   0.143   5.459  1.1468  0.5451 -0.0134
11899SOL    HW237139   4.147   0.227   5.485  1.2278  0.6591  0.0040
11900SOL     OW37140   7.142   5.843   4.902 -0.2472  0.2073 -0.2068
11900SOL    HW137141   7.193   5.920   4.928 -1.1961  1.0403 -0.7353
11900SOL    HW237142   7.206   5.772   4.897  0.6210  0.9259  0.4400
11901SOL     OW37143   3.128   7.297   8.166  0.0395 -0.0995 -0.4216
11901SOL    HW137144   3.049   7.273   8.215  0.0344 -1.6538 -1.1416
11901SOL    HW237145   3.113   7.388   8.141  0.1944  0.8854  2.6766
11902SOL     OW37146   0.619   3.008  11.440 -0.2718 -0.7908  0.3364
11902SOL    HW137147   0.531   2.986  11.469  0.3218 -3.7079  0.2339
11902SOL    HW237148   0.628   2.966  11.355  0.2730  2.0269 -1.1317
11903SOL     OW37149   0.270   3.458   8.265 -0.0332  0.1347  0.9017
11903SOL    HW137150   0.229   3.544   8.277 -0.9968 -0.1003 -0.4191
11903SOL    HW237151   0.233   3.404   8.335  1.3336  1.0137  2.3554
11904SOL     OW37152   1.413   1.517   3.641  0.0569 -0.0348 -0.1929
11904SOL    HW137153   1.434   1.465   3.719 -0.2106 -0.9781 -0.7342
11904SOL    HW237154   1.451   1.603   3.659  2.2574 -0.9731 -0.1181
11905SOL     OW37155   0.637   0.738   5.784 -0.2253  0.8689  0.1983
11905SOL    HW137156   0.551   0.714   5.748 -0.3861  1.8113 -0.0919
11905SOL    HW237157   0.700   0.693   5.728 -0.5275 -0.3436  0.8031
11906SOL     OW37158   0.905   2.120   2.080 -0.1879 -0.4714  0.0501
11906SOL    HW137159   0.926   2.059   2.009 -1.1922 -1.2108  0.3587
11906SOL    HW237160   0.820   2.090   2.113 -0.6515  1.0302  0.3063
11907SOL     OW37161   5.828   5.195   7.275  0.2759  0.2541 -0.2754
11907SOL    HW137162   5.738   5.171   7.293  0.6138 -1.6069 -0.8250
11907SOL    HW237163   5.880   5.134   7.327  1.2399  1.4008  0.1598
11908SOL     OW37164   4.074   3.343   4.639 -0.2181  0.1523 -0.6031
11908SOL    HW137165   4.117   3.424   4.614 -1.2167  0.7408 -0.4645
11908SOL    HW237166   4.076   3.289   4.560 -1.4741  1.1711 -1.3635
11909SOL     OW37167   7.877   6.004   1.030  0.3137  0.1646 -0.2039
11909SOL    HW137168   7.849   5.913   1.017 -1.0015  0.4550  0.4109
11909SOL    HW237169   7.972   6.002   1.019  0.2584 -1.2013 -0.6319
11910SOL     OW37170   1.613   5.646   2.200 -0.0674 -0.0937 -0.1746
11910SOL    HW137171   1.561   5.699   2.260  1.0210 -1.1367  1.7595
11910SOL    HW237172   1.568   5.561   2.199  0.5329 -0.4150  0.0204
11911SOL     OW37173   5.764   6.435   5.641  0.4189  0.2607 -0.4504
11911SOL    HW137174   5.789   6.464   5.553 -2.2641 -0.0373 -1.4200
11911SOL    HW237175   5.680   6.479   5.657  0.2532 -0.6575  1.4396
11912SOL     OW37176   5.309   1.664  12.375 -0.1791 -0.5370 -0.2334
11912SOL    HW137177   5.335   1.602  12.306 -0.1767 -2.0421  1.0776
11912SOL    HW237178   5.378   1.657  12.441 -0.0387  1.0997 -0.1610
11913SOL     OW37179   6.834   4.180   9.010 -0.2524  0.4497  0.2569
11913SOL    HW137180   6.843   4.239   8.935  0.8650  1.5045  1.1787
11913SOL    HW237181   6.739   4.170   9.021 -0.4369  0.5019 -1.1123
11914SOL     OW37182   1.973   4.937   1.358 -0.1302  0.0955 -0.4734
11914SOL    HW137183   1.987   4.935   1.263 -1.0142  0.2459 -0.6107
11914SOL    HW237184   2.061   4.924   1.395  0.3005  0.5296 -1.3101
11915SOL     OW37185   4.579   1.040   9.964 -0.1918 -0.2359  0.0793
11915SOL    HW137186   4.670   1.026   9.988 -0.6054  1.3592  2.9835
11915SOL    HW237187   4.581   1.122   9.914 -0.1358  0.5964  1.3929
11916SOL     OW37188   3.982   0.442   3.474  0.4060 -0.0413  0.1024
11916SOL    HW137189   3.955   0.442   3.566  1.2040  0.5621  0.3409
11916SOL    HW237190   3.956   0.528   3.441  2.0842  0.6004  0.3690
11917SOL     OW37191   7.743   4.220  11.226  0.0014  0.1732  0.3051
11917SOL    HW137192   7.690   4.143  11.204  1.0974 -0.6272  0.3683
11917SOL    HW237193   7.720   4.285  11.160 -0.3990 -0.4650 -0.1942
11918SOL     OW37194   7.089   7.716   4.492 -0.1587 -0.5865 -0.2264
11918SOL    HW137195   7.132   7.744   4.572 -0.1902  1.3789 -0.8392
11918SOL    HW237196   7.148   7.745   4.422 -0.1988 -2.1391 -0.9373
11919SOL     OW37197   6.245   2.986  12.158  0.5193 -0.1673 -0.0483
11919SOL    HW137198   6.165   3.009  12.111 -0.2138 -0.7088  0.8986
11919SOL    HW237199   6.235   2.893  12.178  2.0222 -0.5806 -1.1092
11920SOL     OW37200   6.586   3.774   3.495  0.2954  0.0581 -0.3698
11920SOL    HW137201   6.664   3.805   3.541 -0.1204  0.6255 -0.0266
11920SOL    HW237202   6.587   3.679   3.505  1.2315  0.0113 -0.8474
11921SOL     OW37203   6.478   7.542   4.304  0.3818  0.3035 -0.2475
11921SOL    HW137204   6.446   7.518   4.218 -0.2248 -0.0825  0.0799
11921SOL    HW237205   6.444   7.630   4.319  0.2040  0.2351 -0.2569
11922SOL     OW37206   4.929   6.143   6.169  0.3085  0.0782 -0.7690
11922SOL    HW137207   4.838   6.124   6.193  0.2264 -0.1438 -1.2453
11922SOL    HW237208   4.922   6.200   6.092  0.5684 -0.7128 -1.3921
11923SOL     OW37209   3.670   4.462   7.065 -0.2133 -0.0453 -1.1617
11923SOL    HW137210   3.620   4.384   7.042  2.3096 -1.5699 -1.7904
11923SOL    HW237211   3.660   4.520   6.989 -2.0069  0.2741 -0.7368
11924SOL     OW37212   4.299   2.538   7.621  0.2281  0.4499 -0.2799
11924SOL    HW137213   4.350   2.458   7.626 -1.1007 -0.3955  0.3014
11924SOL    HW237214   4.363   2.606   7.599  1.3698 -0.7642 -0.8797
11925SOL     OW37215   2.475   0.880  10.348  0.2023 -0.1034 -0.4603
11925SOL    HW137216   2.470   0.969  10.313 -0.3944  0.5728  1.2495
11925SOL    HW237217   2.562   0.874  10.385  0.2853 -0.2830 -0.6829
11926SOL     OW37218   4.959   1.120   3.308 -0.0195  0.8096  0.0846
11926SOL    HW137219   4.873   1.117   3.266 -0.5535  1.8327  1.0851
11926SOL    HW237220   4.964   1.207   3.347  1.0706  0.4009  0.8837
11927SOL     OW37221   2.471   5.629   2.804 -0.0998  0.5648 -0.3225
11927SOL    HW137222   2.554   5.646   2.849  0.3482  1.3966 -1.4209
11927SOL    HW237223   2.421   5.710   2.814  0.3088  1.0380 -1.9259
11928SOL     OW37224   1.628   7.518   7.459 -0.0891 -0.5357  0.3906
11928SOL    HW137225   1.664   7.477   7.380  1.8080  1.2869  0.2011
11928SOL    HW237226   1.557   7.574   7.428  0.6141  0.1315 -0.0713
11929SOL     OW37227   3.111   0.127   6.837  0.2278 -0.1617  0.2416
11929SOL    HW137228   3.183   0.175   6.795 -0.3764 -1.0162 -1.8446
11929SOL    HW237229   3.040   0.128   6.773 -0.7255 -1.5815  1.2177
11930SOL     OW37230   0.540   1.084   8.806 -0.7105  0.1642 -0.2671
11930SOL    HW137231   0.531   1.147   8.877 -0.4751  0.9488 -0.9139
11930SOL    HW237232   0.457   1.036   8.805 -0.0578 -1.0993  1.6609
11931SOL     OW37233   7.273   5.009   2.024 -0.1831 -0.1971  0.0823
11931SOL    HW137234   7.334   5.048   2.086 -0.1115  0.7186 -0.5416
11931SOL    HW237235   7.310   5.028   1.938 -0.9260 -0.3304 -0.2823
11932SOL     OW37236   2.670   5.309   1.309  0.3596 -0.6656 -0.0039
11932SOL    HW137237   2.606   5.241   1.287  0.4214 -0.4268 -0.9927
11932SOL    HW237238   2.638   5.387   1.264  2.0875 -0.8982 -1.8220
11933SOL     OW37239   2.675   7.921   7.288 -0.1781 -0.4076 -0.3726
11933SOL    HW137240   2.736   7.854   7.259 -0.5493 -1.3800  1.0232
11933SOL    HW237241   2.650   7.895   7.377 -1.7842  0.5477 -0.4999
11934SOL     OW37242   6.477   5.051   9.972  0.0433 -0.1512 -0.2396
11934SOL    HW137243   6.487   4.980   9.909 -0.3855 -0.5868  0.1725
11934SOL    HW237244   6.383   5.068   9.975  0.0445 -0.2204  0.3679
11935SOL     OW37245   3.706   7.297   2.008  0.4692 -0.3761 -0.3624
11935SOL    HW137246   3.772   7.296   2.077  0.8185  0.8416 -0.6530
11935SOL    HW237247   3.631   7.342   2.047 -1.1187 -3.6280  0.7134
11936SOL     OW37248   6.794   3.410   4.408  0.5964 -0.3700  0.2097
11936SOL    HW137249   6.850   3.389   4.484  0.3729  1.4300  0.9297
11936SOL    HW237250   6.802   3.505   4.399 -1.3379 -0.2379 -0.4860
11937SOL     OW37251   1.530   1.129  11.750  0.1258 -0.1049 -0.0430
11937SOL    HW137252   1.485   1.068  11.692 -1.5916  1.4597 -0.4465
11937SOL    HW237253   1.623   1.117  11.730 -0.1367 -2.4204 -0.2044
11938SOL     OW37254   7.046   5.789  10.955  0.2764  0.0968  0.4809
11938SOL    HW137255   7.124   5.754  10.996 -0.3450 -1.1642  0.6454
11938SOL    HW237256   7.077   5.830  10.874  1.1192 -0.2833  0.6096
11939SOL     OW37257   0.034   2.883   9.143 -0.3841 -0.1026 -0.5172
11939SOL    HW137258  -0.012   2.958   9.106  0.3041  0.9192  0.6253
11939SOL    HW237259   0.112   2.921   9.185 -0.8502 -1.2273  1.5131
11940SOL     OW37260   6.091   3.157   6.628 -0.3044 -0.3104  0.1216
11940SOL    HW137261   6.184   3.136   6.637 -0.4829 -1.1769  0.0410
11940SOL    HW237262   6.048   3.102   6.693 -0.8883 -1.0118 -0.8264
11941SOL     OW37263   6.306   7.271   0.289 -0.5204 -0.0813 -0.3303
11941SOL    HW137264   6.295   7.365   0.294  1.9788  0.2382  0.7294
11941SOL    HW237265   6.400   7.258   0.275 -0.8520 -2.4058 -0.8829
11942SOL     OW37266   2.479   7.616   3.810  0.1886  0.0535 -0.0652
11942SOL    HW137267   2.550   7.567   3.854  1.3727  0.8875 -0.9706
11942SOL    HW237268   2.426   7.548   3.769  0.8345 -0.5678  0.0955
11943SOL     OW37269   2.961   0.008   8.942 -0.2756 -0.5890 -0.1556
11943SOL    HW137270   2.874  -0.030   8.928  0.0764 -1.4234 -0.1651
11943SOL    HW237271   2.998   0.018   8.854 -0.7334  0.7101 -0.2217
11944SOL     OW37272   7.607   3.579  10.790 -0.3670 -0.0401  0.0001
11944SOL    HW137273   7.636   3.502  10.840  1.3029  0.2032 -0.5267
11944SOL    HW237274   7.638   3.562  10.701  0.0215  1.2361 -0.1248
11945SOL     OW37275   3.544   5.882   6.805 -0.1164 -0.5017 -0.2885
11945SOL    HW137276   3.477   5.829   6.762 -0.5493  0.5965 -1.0347
11945SOL    HW237277   3.598   5.915   6.733  1.2457 -1.3619  0.3029
11946SOL     OW37278   1.861   5.459  10.431 -0.3983 -0.1150  0.2495
11946SOL    HW137279   1.782   5.512  10.432 -0.8959 -0.5218  5.0205
11946SOL    HW237280   1.831   5.372  10.403 -1.6143 -0.1314  1.4865
11947SOL     OW37281   2.504   2.167   5.803  0.6788  0.3013  0.0193
11947SOL    HW137282   2.569   2.099   5.817  0.2569  0.0248  0.7180
11947SOL    HW237283   2.423   2.119   5.786  0.3461  0.6163  0.6695
11948SOL     OW37284   5.770   5.546  11.833 -0.3488  0.4972 -0.6693
11948SOL    HW137285   5.688   5.576  11.793 -0.2106  0.6383 -0.8505
11948SOL    HW237286   5.765   5.451  11.832 -1.3067  0.4886  0.9616
11949SOL     OW37287   5.376   3.745   8.035  0.1645  0.6995  0.5037
11949SOL    HW137288   5.314   3.675   8.055 -0.1060  0.9966  0.7017
11949SOL    HW237289   5.328   3.805   7.978  1.1598 -0.5330 -1.7540
11950SOL     OW37290   1.069   0.664   1.003 -0.0446  0.0405  0.0786
11950SOL    HW137291   1.013   0.679   1.080 -1.5562  0.9087 -1.1327
11950SOL    HW237292   1.016   0.609   0.945 -0.4267  2.2442 -1.8326
11951SOL     OW37293   3.208   6.019   3.734  0.0440 -0.1574  0.6349
11951SOL    HW137294   3.200   5.957   3.662 -0.5186 -1.3262  1.6762
11951SOL    HW237295   3.261   6.091   3.697 -0.8167 -0.3718 -1.1426
11952SOL     OW37296   4.748   4.006  10.298  0.0231 -0.6233  0.1525
11952SOL    HW137297   4.826   3.952  10.309 -0.1851 -0.8210  0.6670
11952SOL    HW237298   4.780   4.096  10.304  0.0315 -0.7058  1.6933
11953SOL     OW37299   6.376   4.134   8.176 -0.6161  0.3405  0.4184
11953SOL    HW137300   6.344   4.154   8.264 -1.0992  1.6326 -0.0282
11953SOL    HW237301   6.387   4.219   8.134 -0.3883 -0.2513 -0.7715
11954SOL     OW37302   5.579   6.224   6.639  0.2070 -0.1110  0.8180
11954SOL    HW137303   5.606   6.140   6.677  2.0656  0.4902  0.9080
11954SOL    HW237304   5.649   6.247   6.578  0.4030  1.9720  1.7320
11955SOL     OW37305   6.214   7.583   7.064 -0.2323 -0.2791  0.0884
11955SOL    HW137306   6.171   7.541   7.139 -2.4039  0.5547 -0.6245
11955SOL    HW237307   6.272   7.516   7.029 -0.1423 -1.1152  1.7259
11956SOL     OW37308   3.742   1.281   2.735  0.5608  0.1351  0.0838
11956SOL    HW137309   3.699   1.362   2.708  0.4815  0.4064  0.9901
11956SOL    HW237310   3.778   1.300   2.821  1.4231 -0.4860 -0.1194
11957SOL     OW37311   1.308   1.000   6.533  0.1314  0.3670 -0.0216
11957SOL    HW137312   1.386   0.945   6.523  0.5997  1.1884 -1.0508
11957SOL    HW237313   1.291   1.034   6.445  0.2716  2.4246  0.6992
11958SOL     OW37314   5.626   2.917  10.914 -0.7543  0.0463 -0.7211
11958SOL    HW137315   5.542   2.886  10.948 -0.7439  1.2818  0.5069
11958SOL    HW237316   5.672   2.837  10.888 -2.7325 -0.5966 -2.5706
11959SOL     OW37317   4.167   2.498  12.353 -0.4429  0.4647 -0.0946
11959SOL    HW137318   4.200   2.415  12.386  0.5620  0.8123 -0.1904
11959SOL    HW237319   4.074   2.482  12.335  0.0085 -1.0347 -1.3591
11960SOL     OW37320   1.257   7.875   1.317 -0.1113  0.1751  0.1571
11960SOL    HW137321   1.293   7.808   1.374 -0.4143  0.8852  1.2014
11960SOL    HW237322   1.184   7.833   1.273  0.6266 -0.6197 -0.3388
11961SOL     OW37323   5.823   3.984   3.955  0.1664  0.0387  0.7879
11961SOL    HW137324   5.907   4.013   3.917 -0.5353 -0.2947 -1.1672
11961SOL    HW237325   5.757   4.025   3.899 -1.0142  0.5718  2.5117
11962SOL     OW37326   0.072   2.933  10.171  0.3414 -0.1229  0.2897
11962SOL    HW137327  -0.023   2.921  10.175  0.2180  1.1049  2.5171
11962SOL    HW237328   0.108   2.845  10.175 -0.6948 -0.5027  1.9932
11963SOL     OW37329   4.036   4.938   1.789 -0.1668 -0.6715  0.0438
11963SOL    HW137330   4.035   4.881   1.867  0.9070 -2.3769 -1.1144
11963SOL    HW237331   4.128   4.962   1.780 -0.6037  1.3251  0.5036
11964SOL     OW37332   6.178   0.897  12.045 -0.0989 -0.1373  0.8854
11964SOL    HW137333   6.109   0.937  11.992 -0.2439  0.1144  1.2604
11964SOL    HW237334   6.249   0.960  12.043  0.4895 -0.7995 -0.2636
11965SOL     OW37335   7.806   1.357   7.566 -0.0511  0.3618 -0.7028
11965SOL    HW137336   7.734   1.337   7.626 -0.6075 -1.4432 -1.8834
11965SOL    HW237337   7.784   1.443   7.530 -0.1043  1.1207  1.0399
11966SOL     OW37338   1.383   4.149  11.455 -0.1699 -0.4773 -0.3043
11966SOL    HW137339   1.292   4.138  11.425 -0.6654  0.4878  0.7511
11966SOL    HW237340   1.385   4.106  11.540 -0.4443  1.8184  0.9597
11967SOL     OW37341   3.566   6.969  11.132  0.6054 -0.2299 -0.2159
11967SOL    HW137342   3.651   7.013  11.120  0.4522  0.0074 -0.4559
11967SOL    HW237343   3.513   7.032  11.181  0.3752 -0.1311 -0.5846
11968SOL     OW37344   4.886   0.054  11.306 -0.1275 -0.4136  0.2142
11968SOL    HW137345   4.901   0.077  11.214  0.4207 -2.1146 -0.1594
11968SOL    HW237346   4.926   0.125  11.355 -0.3404  0.4734 -0.8565
11969SOL     OW37347   5.678   6.445   8.218 -0.3814  0.2086  0.1801
11969SOL    HW137348   5.749   6.422   8.159  0.8328 -1.5334  2.2113
11969SOL    HW237349   5.696   6.397   8.298 -2.7941  1.2766  1.4735
11970SOL     OW37350   7.630   6.126   4.331  0.9426 -0.6934  0.1447
11970SOL    HW137351   7.605   6.161   4.245  0.1344  0.6172  0.8940
11970SOL    HW237352   7.573   6.171   4.393  1.6058 -1.5320  1.3974
11971SOL     OW37353   1.950   0.719   7.729 -0.2174 -0.1487 -0.5651
11971SOL    HW137354   1.872   0.740   7.677  0.5093 -1.2801 -2.1873
11971SOL    HW237355   1.924   0.643   7.781 -0.4275 -0.0566 -0.5332
11972SOL     OW37356   1.414   5.871   1.081  0.4420  0.2871  0.2679
11972SOL    HW137357   1.478   5.834   1.142 -0.0500 -0.0233  0.6112
11972SOL    HW237358   1.438   5.835   0.996  2.3005  2.2197 -0.1028
11973SOL     OW37359   1.560   7.137  10.393 -1.0944 -0.3347  0.7330
11973SOL    HW137360   1.515   7.211  10.352 -0.0167  0.3334  0.7200
11973SOL    HW237361   1.653   7.162  10.392 -0.8623 -1.0894  1.9764
11974SOL     OW37362   6.511   4.088   4.246 -0.2939 -0.6370 -0.0068
11974SOL    HW137363   6.427   4.116   4.281 -1.1355  0.5551 -2.7085
11974SOL    HW237364   6.574   4.149   4.283 -1.2804  1.2082 -1.2369
11975SOL     OW37365   1.641   0.329   2.420  0.4747  0.0635 -0.2668
11975SOL    HW137366   1.592   0.250   2.442 -0.8319  0.6753 -0.8890
11975SOL    HW237367   1.705   0.301   2.355  0.7694 -0.6839  0.3318
11976SOL     OW37368   2.245   0.029   9.270  0.0575  0.3734 -0.1818
11976SOL    HW137369   2.276   0.120   9.275 -0.3602  0.6863 -2.3936
11976SOL    HW237370   2.322  -0.023   9.292  1.2148  1.2147 -2.0288
11977SOL     OW37371   1.039   3.923   0.461  0.7689  0.0119  0.0082
11977SOL    HW137372   1.019   3.996   0.519 -1.8507 -0.4543 -0.1833
11977SOL    HW237373   0.973   3.928   0.392  1.5187 -1.6002 -0.8966
11978SOL     OW37374   5.423   0.657   2.500  0.2327 -0.4207 -0.2870
11978SOL    HW137375   5.462   0.629   2.417 -2.4327  0.8862 -2.1491
11978SOL    HW237376   5.393   0.747   2.483  0.5368  0.2871  2.4785
11979SOL     OW37377   4.652   2.328   8.038 -0.1144  0.1180  0.2795
11979SOL    HW137378   4.704   2.381   8.098  0.2660 -0.3402  0.3599
11979SOL    HW237379   4.690   2.241   8.044 -0.9159 -0.2282  0.3557
11980SOL     OW37380   5.040   0.303   2.142  0.2062  0.0085  0.2233
11980SOL    HW137381   4.992   0.221   2.125 -2.7578  1.8423 -0.9312
11980SOL    HW237382   5.096   0.314   2.065  0.0601 -0.5665  0.0268
11981SOL     OW37383   6.180   4.809   4.981  0.5768 -0.0292  0.1382
11981SOL    HW137384   6.183   4.795   5.076  0.8031  1.2323  0.3396
11981SOL    HW237385   6.197   4.723   4.944 -1.6697 -1.0272  1.2089
11982SOL     OW37386   6.247   6.278  11.122 -0.7340  0.5202  0.4487
11982SOL    HW137387   6.306   6.211  11.086  0.8375  0.8228  2.2774
11982SOL    HW237388   6.180   6.290  11.055 -0.1013 -1.6404 -0.6659
11983SOL     OW37389   2.435   5.467   9.951 -0.0762  0.2863 -0.1206
11983SOL    HW137390   2.490   5.440   9.877  0.0762  0.8244 -0.2102
11983SOL    HW237391   2.431   5.562   9.943 -0.1516  0.3353  0.5001
11984SOL     OW37392   7.812   3.539   3.322  0.3559  0.6802 -0.2155
11984SOL    HW137393   7.867   3.460   3.317  0.0374  0.4375  0.0776
11984SOL    HW237394   7.787   3.557   3.231  3.5110  2.6638 -0.8573
11985SOL     OW37395   4.924   3.627   1.308 -0.3020 -0.3143  0.1554
11985SOL    HW137396   4.918   3.651   1.400  0.8065 -0.3922  0.2527
11985SOL    HW237397   5.011   3.656   1.280 -0.7998  0.1423 -0.9967
11986SOL     OW37398   3.223   2.944  10.577 -0.5507 -0.1359  0.7172
11986SOL    HW137399   3.156   2.968  10.512 -0.2970  0.1191  0.5457
11986SOL    HW237400   3.177   2.890  10.640 -0.4424 -1.7964 -0.5529
11987SOL     OW37401   3.360   6.305   4.959 -0.5601  0.0530 -0.1972
11987SOL    HW137402   3.286   6.316   5.018 -0.3543 -0.2989  0.1319
11987SOL    HW237403   3.390   6.394   4.941  0.2097  0.1311  1.3126
11988SOL     OW37404   3.605   7.426  11.887  0.0766  0.4109  0.1431
11988SOL    HW137405   3.592   7.375  11.968 -1.4281  1.1216  0.3719
11988SOL    HW237406   3.654   7.367  11.830  0.4732 -0.4013  1.2785
11989SOL     OW37407   4.253   3.139  10.389 -0.2497  0.4078  0.0258
11989SOL    HW137408   4.276   3.152  10.297  0.0687  2.6195  0.3505
11989SOL    HW237409   4.338   3.124  10.432 -0.3828 -0.4768 -0.0066
11990SOL     OW37410   1.991   6.654   1.370  0.0922  0.4110  0.0049
11990SOL    HW137411   2.015   6.720   1.305  1.1017 -0.6845 -0.7743
11990SOL    HW237412   1.971   6.576   1.318  1.3867 -0.6322  1.0091
11991SOL     OW37413   0.280   2.573   4.712  0.3554  0.5442  0.3129
11991SOL    HW137414   0.213   2.552   4.776 -0.7587  0.9700 -0.6738
11991SOL    HW237415   0.231   2.595   4.632  1.6768  0.1172 -0.6614
11992SOL     OW37416   6.795   2.813   9.937  0.4409 -0.0085  0.1506
11992SOL    HW137417   6.759   2.774   9.857  1.3730 -0.7410  0.0806
11992SOL    HW237418   6.889   2.801   9.930  0.5358 -0.0999  1.3793
11993SOL     OW37419   7.562   3.618   7.082  0.1576  0.0370  0.0141
11993SOL    HW137420   7.628   3.604   7.151 -0.1039 -1.0893  0.0568
11993SOL    HW237421   7.608   3.599   7.001 -0.0318 -0.5123  0.0271
11994SOL     OW37422   1.524   3.323   1.093 -0.3187 -0.6073  0.3882
11994SOL    HW137423   1.491   3.296   1.007 -1.4928 -0.7945  0.8793
11994SOL    HW237424   1.620   3.321   1.083 -0.4133  0.3132 -1.1974
11995SOL     OW37425   3.431   7.103   0.165 -0.5240  0.0269  0.0912
11995SOL    HW137426   3.389   7.032   0.215 -0.9388  0.8375  0.9289
11995SOL    HW237427   3.402   7.183   0.209  0.8292  0.6722 -0.1532
11996SOL     OW37428   6.520   4.004  10.465  0.1910 -0.2750 -0.0294
11996SOL    HW137429   6.477   4.088  10.481  0.2194 -0.4964  1.3786
11996SOL    HW237430   6.456   3.954  10.414 -1.2304 -0.5243  1.8608
11997SOL     OW37431   3.339   1.766  11.633 -0.1849  0.0717 -0.2752
11997SOL    HW137432   3.255   1.726  11.654 -0.2476 -0.5111 -1.5880
11997SOL    HW237433   3.399   1.692  11.623  0.5067  0.4767  0.6368
11998SOL     OW37434   0.898   0.893   5.401  0.5349  0.0474 -0.8146
11998SOL    HW137435   0.905   0.929   5.312  0.6182 -1.5653 -1.5021
11998SOL    HW237436   0.861   0.805   5.388  1.2558 -0.5091  0.6823
11999SOL     OW37437   6.585   3.425   9.895  0.7416 -0.2731 -0.1541
11999SOL    HW137438   6.665   3.425   9.948 -0.4701  1.3621  1.8563
11999SOL    HW237439   6.579   3.514   9.861 -0.2042 -0.3899 -0.3233
12000SOL     OW37440   5.956   4.656   4.604  0.3342 -0.6008 -0.1050
12000SOL    HW137441   5.871   4.685   4.570 -0.1897  0.3686  1.8375
12000SOL    HW237442   6.020   4.713   4.562 -0.4632  1.8811  1.7727
12001SOL     OW37443   5.551   1.259  11.149 -0.1461 -0.0388 -0.7112
12001SOL    HW137444   5.537   1.166  11.167  1.1758  0.0140  0.8227
12001SOL    HW237445   5.493   1.278  11.075 -1.1030 -1.8583 -0.4873
12002SOL     OW37446   2.399   5.188   4.554 -0.0447 -0.4838  0.3974
12002SOL    HW137447   2.439   5.139   4.482 -0.0598  0.2696 -0.1500
12002SOL    HW237448   2.363   5.266   4.511 -0.6813 -0.3725  1.1246
12003SOL     OW37449   4.932   0.210   3.837  0.0736  0.1282  0.1467
12003SOL    HW137450   5.020   0.179   3.858  0.6600  1.5398 -0.0949
12003SOL    HW237451   4.919   0.183   3.746  0.8024  1.0404 -0.2462
12004SOL     OW37452   1.020   0.444   5.395  0.6586 -0.5331  0.2333
12004SOL    HW137453   1.076   0.514   5.361  0.0399 -0.8543 -1.5590
12004SOL    HW237454   0.946   0.490   5.436  0.0986 -0.1135 -1.2041
12005SOL     OW37455   2.732   3.838   6.467 -0.0101  0.6785  0.0812
12005SOL    HW137456   2.728   3.742   6.470 -0.4887  0.4905 -2.9628
12005SOL    HW237457   2.816   3.859   6.508  0.3122 -1.0865  0.4251
12006SOL     OW37458   6.368   3.952   9.792  0.2500  0.0824  0.1492
12006SOL    HW137459   6.431   3.884   9.768  0.4241  0.5033 -0.6247
12006SOL    HW237460   6.422   4.026   9.820  0.0805  0.2058  0.1517
12007SOL     OW37461   1.646   3.269   2.588  0.1296  0.1053 -0.4564
12007SOL    HW137462   1.604   3.345   2.548  0.2328  0.0862 -0.6040
12007SOL    HW237463   1.612   3.267   2.677 -0.8924 -0.4323 -0.8297
12008SOL     OW37464   1.366   7.372   6.518  0.4521 -0.4656  0.4322
12008SOL    HW137465   1.444   7.323   6.492 -0.8044 -1.4979 -1.6838
12008SOL    HW237466   1.356   7.439   6.450 -0.6678 -0.5484  0.4932
12009SOL     OW37467   0.619   7.549   5.931 -0.0957  0.2490  0.3300
12009SOL    HW137468   0.606   7.634   5.975 -1.7471  0.2175 -0.0112
12009SOL    HW237469   0.687   7.505   5.982  0.2712  1.4876  0.9443
12010SOL     OW37470   3.897   0.019   4.559 -0.7134  0.1842 -0.0987
12010SOL    HW137471   3.922   0.101   4.600  1.9996  0.0634 -1.2199
12010SOL    HW237472   3.974  -0.038   4.571 -1.9868 -1.7301 -0.5066
12011SOL     OW37473   7.546   6.352  10.626 -0.2533 -0.1168  0.0236
12011SOL    HW137474   7.569   6.396  10.708 -1.0828  0.6917 -0.1594
12011SOL    HW237475   7.453   6.329  10.636  0.0030 -1.2729 -0.1408
12012SOL     OW37476   4.493   7.048   2.815  0.6781  0.4283 -0.2189
12012SOL    HW137477   4.551   7.033   2.889 -0.8421  0.7841  1.1146
12012SOL    HW237478   4.489   7.143   2.805  2.6928  0.3812 -2.3454
12013SOL     OW37479   0.892   2.482   4.664 -0.6986  0.4082  0.1999
12013SOL    HW137480   0.839   2.476   4.585  0.5877  0.9467 -0.7454
12013SOL    HW237481   0.972   2.526   4.636  0.3878 -0.6424  1.4853
12014SOL     OW37482   6.469   4.333   2.714 -0.1485 -0.3195  0.5040
12014SOL    HW137483   6.404   4.275   2.754 -0.7720 -0.0801 -0.1223
12014SOL    HW237484   6.484   4.401   2.779  1.3120 -1.6557  1.6437
12015SOL     OW37485   0.524   3.900   9.080  0.1141  0.1075  0.3137
12015SOL    HW137486   0.473   3.951   9.017  1.1989 -0.8369 -1.4066
12015SOL    HW237487   0.468   3.895   9.158 -1.5482  0.7854 -0.7829
12016SOL     OW37488   2.116   0.761  10.710 -0.4933 -0.2287 -0.1021
12016SOL    HW137489   2.116   0.855  10.723  0.0014  0.1227 -2.2876
12016SOL    HW237490   2.046   0.745  10.647  0.7077 -1.0519 -1.2863
12017SOL     OW37491   1.926   4.688   2.539  0.3199 -0.0753  0.1570
12017SOL    HW137492   1.989   4.631   2.582  1.4111  0.8160 -0.2182
12017SOL    HW237493   1.920   4.765   2.596 -0.1273  0.0243 -0.0188
12018SOL     OW37494   1.943   0.257  11.020 -0.2368 -0.2884 -0.3230
12018SOL    HW137495   1.913   0.169  11.046 -1.0499 -0.1010 -0.5849
12018SOL    HW237496   1.931   0.258  10.925  0.5438 -0.1697 -0.4252
12019SOL     OW37497   3.727   4.171   2.227  0.3682  0.6697  0.2052
12019SOL    HW137498   3.739   4.197   2.135  0.6425 -0.1494  0.0004
12019SOL    HW237499   3.741   4.251   2.277 -0.7180  1.3454 -0.5263
12020SOL     OW37500   6.406   1.187  11.770  0.0182 -0.2762 -0.1495
12020SOL    HW137501   6.492   1.181  11.728 -0.8131 -0.1491 -1.9394
12020SOL    HW237502   6.400   1.279  11.798  0.1869 -0.1121 -0.6442
12021SOL     OW37503   6.330   6.944  10.320  0.1470  0.7204 -0.1670
12021SOL    HW137504   6.400   6.939  10.385 -0.4231  2.5629  0.6610
12021SOL    HW237505   6.249   6.942  10.372 -0.3312  1.4471 -0.8570
12022SOL     OW37506   0.381   7.170  10.289  0.3495  0.1034 -0.2894
12022SOL    HW137507   0.421   7.189  10.374  1.3077 -2.0281 -0.2023
12022SOL    HW237508   0.318   7.241  10.275 -0.5029  0.0388  2.6245
12023SOL     OW37509   7.905   6.313   1.441  0.3844 -0.0682 -0.1319
12023SOL    HW137510   7.964   6.242   1.414  2.0270  0.2812  2.1747
12023SOL    HW237511   7.933   6.388   1.389  1.9315  0.0310  0.7676
12024SOL     OW37512   5.743   6.179   9.845  0.2384 -0.5369  0.3696
12024SOL    HW137513   5.672   6.137   9.798  1.0529 -0.5609 -0.9015
12024SOL    HW237514   5.733   6.150   9.935 -2.5553  1.0620  0.6973
12025SOL     OW37515   7.037   3.534   7.718 -0.7436 -0.7007  0.1333
12025SOL    HW137516   7.052   3.440   7.709 -0.9820 -0.9074  1.6448
12025SOL    HW237517   7.079   3.573   7.640  1.4527 -1.8510  0.6627
12026SOL     OW37518   7.872   7.408   8.810 -0.1545  0.5525  0.4109
12026SOL    HW137519   7.938   7.448   8.753  1.8840 -0.2604  2.0676
12026SOL    HW237520   7.912   7.408   8.897 -0.8002 -3.2016  0.8816
12027SOL     OW37521   6.256   7.260   0.874 -0.3347 -0.1473 -0.3319
12027SOL    HW137522   6.273   7.269   0.780  0.0203 -0.2774 -0.2821
12027SOL    HW237523   6.235   7.349   0.903  0.8432  0.1374 -0.2904
12028SOL     OW37524   5.466   2.368  11.880 -0.0711  0.0494 -0.1079
12028SOL    HW137525   5.388   2.384  11.932 -0.9313 -0.9790 -1.0520
12028SOL    HW237526   5.490   2.277  11.899 -0.8332 -0.5881 -2.0191
12029SOL     OW37527   0.703   6.051   1.276  0.0686  0.3073  0.6190
12029SOL    HW137528   0.676   6.012   1.359 -2.9940 -0.1897 -0.5098
12029SOL    HW237529   0.639   6.120   1.259  0.5291  0.3095 -1.4049
12030SOL     OW37530   7.062   2.007   1.958 -0.3954  0.0674  0.4375
12030SOL    HW137531   7.103   2.086   1.923  1.2688 -0.7032  0.5072
12030SOL    HW237532   7.134   1.961   2.002 -1.1841 -1.7160 -0.0462
12031SOL     OW37533   6.408   1.433  11.029 -0.2221  0.0524  0.1553
12031SOL    HW137534   6.347   1.380  10.977  1.5323 -1.4411 -0.5053
12031SOL    HW237535   6.382   1.416  11.120 -1.3905  0.2445 -0.1253
12032SOL     OW37536   1.547   3.670  12.076  0.0551  0.0077  0.7681
12032SOL    HW137537   1.579   3.710  12.158 -1.5615 -0.1190  1.4984
12032SOL    HW237538   1.623   3.623  12.042  1.1251  1.0959  1.5340
12033SOL     OW37539   0.876   2.678   6.958 -0.5133  0.5943  0.0950
12033SOL    HW137540   0.834   2.592   6.946  0.0405  0.3468 -0.0854
12033SOL    HW237541   0.812   2.741   6.924  0.2973  0.0495 -2.7245
12034SOL     OW37542   1.527   2.234   9.591 -0.0828 -0.0152 -0.0043
12034SOL    HW137543   1.440   2.259   9.560 -0.5145 -0.4645  0.8251
12034SOL    HW237544   1.585   2.253   9.517 -0.9209  0.0428 -0.6617
12035SOL     OW37545   3.406   5.323   9.036 -0.1860 -0.2912  0.2099
12035SOL    HW137546   3.404   5.347   8.943  0.3139  0.6517  0.4267
12035SOL    HW237547   3.392   5.406   9.082  0.7620 -0.5530  0.9920
12036SOL     OW37548   2.839   1.367   4.657  0.2056 -0.5247 -0.2175
12036SOL    HW137549   2.762   1.366   4.600 -0.4670  2.6330  0.4673
12036SOL    HW237550   2.861   1.275   4.669 -0.8108 -1.4273 -3.9150
12037SOL     OW37551   6.791   5.963  10.338  0.0710  0.1804 -0.1987
12037SOL    HW137552   6.715   6.016  10.364 -0.5072 -0.4919 -0.4753
12037SOL    HW237553   6.822   5.925  10.419 -2.2243 -2.5680 -0.4331
12038SOL     OW37554   6.597   6.526   1.396  0.2845 -0.3678  0.3236
12038SOL    HW137555   6.670   6.466   1.412  0.0008 -1.0322 -0.7603
12038SOL    HW237556   6.629   6.583   1.326  0.4269  0.5470  1.1108
12039SOL     OW37557   4.640   6.279   7.692 -0.1403  0.4551 -0.2860
12039SOL    HW137558   4.586   6.213   7.648  0.7940  0.0036 -0.8120
12039SOL    HW237559   4.686   6.231   7.761  0.3283  0.6086 -0.4846
12040SOL     OW37560   0.732   2.236   5.744  0.2181  0.0306  0.2984
12040SOL    HW137561   0.819   2.271   5.760  0.3390  1.0836 -2.1181
12040SOL    HW237562   0.747   2.144   5.722  0.4752 -0.2840  1.6992
12041SOL     OW37563   2.918   7.483   6.765 -0.3171 -0.6593 -0.2091
12041SOL    HW137564   2.910   7.441   6.851  0.2514  0.9129  0.6699
12041SOL    HW237565   2.829   7.487   6.731 -0.5443 -1.3401  0.2935
12042SOL     OW37566   1.246   6.581   6.762  0.6264  0.0259 -0.4641
12042SOL    HW137567   1.178   6.609   6.701  0.1648 -0.4154 -0.1625
12042SOL    HW237568   1.298   6.659   6.778 -0.3320  0.6004 -0.0350
12043SOL     OW37569   5.670   0.231   8.244 -0.2470 -0.8592 -0.1836
12043SOL    HW137570   5.614   0.157   8.219 -0.4290 -2.2079  3.4785
12043SOL    HW237571   5.608   0.295   8.281  0.2334 -0.6371  0.2472
12044SOL     OW37572   4.790   2.300  11.781 -0.2866 -0.2768 -0.0129
12044SOL    HW137573   4.762   2.355  11.708 -1.7026  0.2604  0.8967
12044SOL    HW237574   4.724   2.231  11.786 -1.2167  0.6658  1.7947
12045SOL     OW37575   4.292   2.335   1.475 -0.3045  0.3318  0.8056
12045SOL    HW137576   4.383   2.354   1.454 -0.3683 -0.6713 -0.4988
12045SOL    HW237577   4.245   2.415   1.452 -0.0021  0.1915 -0.3354
12046SOL     OW37578   6.614   3.361  10.892  0.2311 -0.4796 -0.6917
12046SOL    HW137579   6.661   3.289  10.849 -0.3145 -1.4981  0.3638
12046SOL    HW237580   6.665   3.439  10.869 -1.1056 -0.5733 -4.8603
12047SOL     OW37581   7.703   0.161  10.376  0.0725 -0.5219  0.5233
12047SOL    HW137582   7.714   0.128  10.287 -1.8646  0.6393 -0.2077
12047SOL    HW237583   7.695   0.082  10.430 -0.8698 -1.2722 -0.6562
12048SOL     OW37584   2.439   6.344   3.520  0.1427  0.5484 -0.4168
12048SOL    HW137585   2.441   6.251   3.496 -1.7290  0.3464  0.0957
12048SOL    HW237586   2.352   6.374   3.494  0.3656  1.9091  0.3230
12049SOL     OW37587   6.950   3.654   4.078 -0.3524  0.4297  0.0595
12049SOL    HW137588   6.931   3.564   4.106 -0.8940  0.5611  0.1127
12049SOL    HW237589   6.881   3.706   4.117 -0.3338  0.8033 -0.4058
12050SOL     OW37590   3.862   5.707   8.096 -0.0124  0.0846  0.3317
12050SOL    HW137591   3.880   5.615   8.115 -1.7408 -0.2812  0.3935
12050SOL    HW237592   3.805   5.735   8.168 -2.2088  0.2304 -1.3789
12051SOL     OW37593   0.624   6.026   1.896 -0.6500  0.6398  0.2615
12051SOL    HW137594   0.660   5.965   1.832  2.0249  2.1571  0.1545
12051SOL    HW237595   0.615   6.108   1.847 -1.4850  1.0613  1.0944
12052SOL     OW37596   6.372   1.897   1.400 -0.8398  0.4704 -0.7792
12052SOL    HW137597   6.424   1.824   1.433 -0.8105  0.8962  0.1348
12052SOL    HW237598   6.413   1.975   1.438 -0.0987  1.0964 -2.7272
12053SOL     OW37599   7.247   3.338   5.097  0.2292  0.6296  0.0060
12053SOL    HW137600   7.209   3.426   5.101  2.0051  1.5574 -1.8502
12053SOL    HW237601   7.216   3.303   5.013  0.6686  0.0488  0.0819
12054SOL     OW37602   3.835   0.738  11.136  0.2826 -0.3998 -0.2941
12054SOL    HW137603   3.812   0.790  11.059 -0.7584 -0.1002  0.1994
12054SOL    HW237604   3.807   0.649  11.114  1.1106 -0.5571 -0.7336
12055SOL     OW37605   1.871   2.035   2.468  0.4939 -0.4632  0.1655
12055SOL    HW137606   1.952   2.020   2.517  0.3940 -1.0472  0.1520
12055SOL    HW237607   1.828   1.950   2.465  1.7726 -1.1088 -3.2754
12056SOL     OW37608   2.841   2.542   4.457  0.5135 -0.3564 -0.4601
12056SOL    HW137609   2.883   2.480   4.516 -1.7763 -0.6725  0.9507
12056SOL    HW237610   2.795   2.488   4.394  0.4672 -0.0447 -0.6958
12057SOL     OW37611   7.273   2.180   7.044 -0.2845 -0.3551 -0.6562
12057SOL    HW137612   7.186   2.217   7.057  0.4321  0.6822  1.7669
12057SOL    HW237613   7.258   2.087   7.031 -1.7122 -0.7694  2.7845
12058SOL     OW37614   4.455   1.857   2.700  0.1949  0.2294  0.1976
12058SOL    HW137615   4.427   1.894   2.784  1.7355 -0.2210  0.9468
12058SOL    HW237616   4.513   1.923   2.663  3.3096 -1.3844  1.7410
12059SOL     OW37617   5.606   2.514  11.306 -0.5710  0.2564  0.1987
12059SOL    HW137618   5.592   2.456  11.231 -2.8244 -1.5923  1.8915
12059SOL    HW237619   5.585   2.601  11.272  1.2130 -0.0535 -1.9739
12060SOL     OW37620   1.599   7.188   1.147 -0.0483  0.3363  0.6694
12060SOL    HW137621   1.690   7.209   1.169  0.4124  0.3363 -1.0592
12060SOL    HW237622   1.596   7.093   1.144  0.1804  0.3440 -0.2503
12061SOL     OW37623   6.999   6.675  10.556 -0.9686  0.4650 -0.1989
12061SOL    HW137624   6.919   6.672  10.505 -0.7210  1.8398 -0.7049
12061SOL    HW237625   7.064   6.631  10.501 -0.4338  2.8872 -1.6510
12062SOL     OW37626   2.205   3.564  11.747 -0.4198 -0.2996  0.6891
12062SOL    HW137627   2.287   3.594  11.707 -0.7496  0.5213  0.6072
12062SOL    HW237628   2.210   3.468  11.744 -0.2128 -0.2520 -0.8422
12063SOL     OW37629   3.527   6.497  10.778  0.1399 -0.2192  0.2784
12063SOL    HW137630   3.604   6.506  10.721  0.2033 -0.3784  0.3380
12063SOL    HW237631   3.508   6.586  10.807  0.3037 -0.1795  0.2655
12064SOL     OW37632   2.033   2.245   0.505  0.5557  0.0311 -0.6127
12064SOL    HW137633   2.077   2.321   0.466  0.2712  0.3401 -0.3458
12064SOL    HW237634   1.976   2.213   0.436 -0.4426  0.9810 -0.2723
12065SOL     OW37635   4.390   3.475   9.850 -0.2239  0.5416 -0.1604
12065SOL    HW137636   4.451   3.524   9.796 -0.1601  2.3311  1.4383
12065SOL    HW237637   4.397   3.385   9.819  1.1884  1.1735 -1.8144
12066SOL     OW37638   0.593   5.472  10.283 -0.1888  0.4012  0.4410
12066SOL    HW137639   0.684   5.498  10.266  0.1432  0.4551  2.0560
12066SOL    HW237640   0.601   5.406  10.353 -1.3823  0.2129  0.4104
12067SOL     OW37641   5.888   0.710   0.130 -0.4735 -0.3756  0.2362
12067SOL    HW137642   5.974   0.746   0.112 -0.4078 -0.6075  0.0733
12067SOL    HW237643   5.841   0.780   0.175 -0.0444 -0.4096  0.7525
12068SOL     OW37644   5.206   0.404   6.285 -0.0450  1.0162 -0.0561
12068SOL    HW137645   5.247   0.323   6.313  1.3609  1.7981  0.2817
12068SOL    HW237646   5.199   0.396   6.190 -0.8212  0.1194  0.0678
12069SOL     OW37647   3.054   6.279   3.650  0.2322 -0.4095 -0.4460
12069SOL    HW137648   3.042   6.367   3.685  0.4008 -0.6607  0.2656
12069SOL    HW237649   3.027   6.221   3.721  0.9481 -0.9406 -0.5943
12070SOL     OW37650   2.386   4.172   0.431  0.0503  0.1246  0.0264
12070SOL    HW137651   2.375   4.083   0.396  0.5901 -0.3018  0.9028
12070SOL    HW237652   2.456   4.164   0.495  0.1763  1.2191  0.0415
12071SOL     OW37653   0.678   6.951   4.687  0.3275 -0.6830 -0.0177
12071SOL    HW137654   0.627   6.899   4.749 -0.3750  2.0825  1.9223
12071SOL    HW237655   0.758   6.973   4.734 -0.0822  1.2141 -0.1034
12072SOL     OW37656   4.279   5.009   1.765  0.0133  0.3529  0.3611
12072SOL    HW137657   4.332   5.010   1.845 -0.9551  1.8671  1.0129
12072SOL    HW237658   4.336   5.049   1.699  0.1115  0.9194  0.7796
12073SOL     OW37659   0.217   6.953   2.076 -0.3239  0.1652 -0.2679
12073SOL    HW137660   0.290   7.009   2.050  0.7729 -0.6338  1.0294
12073SOL    HW237661   0.251   6.864   2.068 -1.2967 -0.2334 -0.0640
12074SOL     OW37662   4.853   7.477  11.144  0.1181  0.5253  0.1060
12074SOL    HW137663   4.840   7.535  11.069  1.9251  0.4431 -0.3263
12074SOL    HW237664   4.813   7.394  11.116 -2.1595  1.3876  0.5910
12075SOL     OW37665   4.015   1.392   4.231  0.3014 -0.0369  0.0282
12075SOL    HW137666   4.002   1.297   4.234 -2.1565  0.2545  0.4038
12075SOL    HW237667   3.970   1.420   4.152  1.4315  0.7855 -0.3391
12076SOL     OW37668   1.356   6.719   3.374  0.1406 -0.9198  0.6880
12076SOL    HW137669   1.428   6.692   3.431  1.4967 -1.0851 -1.0270
12076SOL    HW237670   1.399   6.755   3.296 -1.5888  2.6620  1.1829
12077SOL     OW37671   3.626   0.973   2.586 -0.2889  0.0335  0.1654
12077SOL    HW137672   3.598   0.889   2.620 -0.7989  0.0669 -0.1590
12077SOL    HW237673   3.719   0.979   2.609  0.3395 -1.5605 -1.6483
12078SOL     OW37674   3.766   4.951   6.048  0.0288 -0.5214  0.2771
12078SOL    HW137675   3.686   4.899   6.058 -0.0243 -0.7418 -1.0430
12078SOL    HW237676   3.777   4.958   5.953  1.1636  0.1512  0.4501
12079SOL     OW37677   5.183   4.519   4.654 -0.0680  0.0226  0.3142
12079SOL    HW137678   5.240   4.589   4.622 -0.6844  1.0900  1.4712
12079SOL    HW237679   5.132   4.559   4.725 -3.0189 -0.5509 -1.2995
12080SOL     OW37680   6.700   3.506   1.633 -0.1928 -0.4557 -0.2346
12080SOL    HW137681   6.628   3.568   1.642  1.1260  1.1301 -0.1306
12080SOL    HW237682   6.680   3.437   1.696 -0.5651  1.0372  1.3457
12081SOL     OW37683   6.636   2.343   6.435  0.8183 -0.1228  0.2523
12081SOL    HW137684   6.563   2.400   6.455  1.1052 -0.2044  1.6539
12081SOL    HW237685   6.596   2.258   6.416  0.4899  0.0940 -0.0198
12082SOL     OW37686   4.937   2.281   8.750 -0.5869 -0.2969  0.3957
12082SOL    HW137687   4.948   2.203   8.804  3.6047  0.5036  1.0536
12082SOL    HW237688   4.963   2.254   8.662  1.4125  0.3727  0.7340
12083SOL     OW37689   3.581   0.454   7.324  0.1162  0.7786  0.2549
12083SOL    HW137690   3.617   0.408   7.400 -0.2390 -0.5617 -0.3441
12083SOL    HW237691   3.513   0.395   7.291  1.6021  0.3175 -2.2891
12084SOL     OW37692   6.199   7.717   4.421  0.2848 -0.6719  0.2736
12084SOL    HW137693   6.217   7.752   4.334 -0.7262 -0.0989  0.2788
12084SOL    HW237694   6.103   7.723   4.430  0.3785 -0.6716  1.4347
12085SOL     OW37695   1.966   4.013   2.206  0.1179 -0.4730 -0.2985
12085SOL    HW137696   1.923   3.949   2.263  0.3896  0.8548  1.4647
12085SOL    HW237697   2.054   3.977   2.192 -0.3109 -1.3541 -0.8368
12086SOL     OW37698   5.336   1.063   6.979  0.4410 -0.4445  0.2235
12086SOL    HW137699   5.406   1.104   7.030  0.8882 -1.0552  0.1123
12086SOL    HW237700   5.277   1.027   7.045  0.0419  0.3590  0.3240
12087SOL     OW37701   4.584   7.817  11.141  0.1636 -0.5735 -0.1991
12087SOL    HW137702   4.632   7.828  11.223  0.3749 -0.8777 -0.2794
12087SOL    HW237703   4.497   7.788  11.167 -0.1357  0.4187 -0.0257
12088SOL     OW37704   6.562   6.713   4.966  0.3830  0.0668  0.2007
12088SOL    HW137705   6.474   6.750   4.958 -0.3140 -1.0178  2.2094
12088SOL    HW237706   6.614   6.762   4.903 -1.4637  1.3524 -0.4096
12089SOL     OW37707   2.127   2.911   2.335  0.7809  0.2146 -0.2249
12089SOL    HW137708   2.116   2.909   2.431 -1.7963  1.0599 -0.4327
12089SOL    HW237709   2.169   2.995   2.318 -0.2416  0.7947  0.0679
12090SOL     OW37710   5.354   1.517  12.158  0.0810  0.2863 -0.2271
12090SOL    HW137711   5.379   1.425  12.171 -0.3790 -0.0123 -1.3159
12090SOL    HW237712   5.271   1.513  12.111 -0.9359  1.2742  1.3930
12091SOL     OW37713   4.290   4.742  10.562  0.3434  0.3369  0.7056
12091SOL    HW137714   4.324   4.785  10.640  0.0163  0.8707  0.5521
12091SOL    HW237715   4.285   4.811  10.496 -0.4241  0.1169  0.5302
12092SOL     OW37716   7.011   3.052   2.579 -0.2366 -0.4019  0.3210
12092SOL    HW137717   6.943   3.103   2.535  0.2340 -0.5439 -0.5797
12092SOL    HW237718   7.023   3.097   2.663  0.0489  0.8958 -0.3798
12093SOL     OW37719   5.453   7.204   5.095  0.2145  0.2160 -0.8718
12093SOL    HW137720   5.427   7.115   5.118 -1.8320  0.6037 -1.4483
12093SOL    HW237721   5.475   7.199   5.002 -1.0054  0.4768 -1.2021
12094SOL     OW37722   1.722   7.668   0.362  0.2753  0.0960  0.4824
12094SOL    HW137723   1.755   7.626   0.442  2.0671 -1.7287 -1.1057
12094SOL    HW237724   1.783   7.741   0.346 -2.3810  3.1189  2.8056
12095SOL     OW37725   7.386   0.676   1.126 -0.5443 -0.0099 -0.0575
12095SOL    HW137726   7.344   0.758   1.151  0.4270  0.1651  1.0761
12095SOL    HW237727   7.395   0.628   1.209  0.5568 -0.4690 -0.4343
12096SOL     OW37728   7.346   4.886   3.402 -0.7394  0.0220 -0.1090
12096SOL    HW137729   7.422   4.883   3.459  0.3016  1.9199 -1.2677
12096SOL    HW237730   7.276   4.920   3.458 -0.7213 -1.5239  0.9065
12097SOL     OW37731   0.493   2.478   0.316 -0.2634 -0.1444 -0.0164
12097SOL    HW137732   0.542   2.441   0.243 -0.4216 -0.2095 -0.0883
12097SOL    HW237733   0.430   2.538   0.276 -0.9808 -0.8759 -0.0001
12098SOL     OW37734   4.951   2.034   2.048  0.2556 -0.1429 -0.3729
12098SOL    HW137735   5.019   2.101   2.042  0.5592 -0.5183 -1.3990
12098SOL    HW237736   4.971   1.986   2.128  0.8734  0.1051 -0.3734
12099SOL     OW37737   6.076   3.877   9.896  0.1309 -0.9387  0.0384
12099SOL    HW137738   6.078   3.952   9.837 -0.2145  0.4051  1.6629
12099SOL    HW237739   6.006   3.821   9.862 -0.6447  0.2269 -0.3352
12100SOL     OW37740   0.208   7.186   9.050  0.3917  0.1495 -0.6113
12100SOL    HW137741   0.223   7.199   8.957 -0.3813 -2.0486 -1.1161
12100SOL    HW237742   0.114   7.198   9.062  0.2620 -0.8769 -0.4167
12101SOL     OW37743   1.467   3.027  10.852  0.2660 -0.1035  0.1543
12101SOL    HW137744   1.544   2.984  10.891  2.0554  1.6984 -1.1805
12101SOL    HW237745   1.463   3.112  10.895  0.3503  0.6509 -1.2921
12102SOL     OW37746   4.000   4.292   1.038  0.1206 -0.4406 -0.2264
12102SOL    HW137747   4.087   4.254   1.048  0.5509  0.6044  0.0631
12102SOL    HW237748   4.000   4.331   0.951  0.2938  0.4482  0.1681
12103SOL     OW37749   5.430   3.193   8.822 -0.2815 -0.0066 -0.7109
12103SOL    HW137750   5.492   3.266   8.812  0.4263 -0.2528  1.3556
12103SOL    HW237751   5.438   3.168   8.914 -1.5181 -1.8194 -1.0523
12104SOL     OW37752   0.933   3.541   4.427  0.1501 -0.6519 -0.2932
12104SOL    HW137753   0.865   3.479   4.450 -0.6010 -0.0153 -0.7531
12104SOL    HW237754   0.898   3.589   4.352  0.5142  0.6283  0.3192
12105SOL     OW37755   1.572   1.663  11.453 -0.1698  0.2710  0.4407
12105SOL    HW137756   1.578   1.702  11.541 -0.9624  0.2027  0.5314
12105SOL    HW237757   1.533   1.577  11.468 -0.7554  0.4496 -0.0308
12106SOL     OW37758   5.148   7.170   0.399  0.3882  0.2339  0.2143
12106SOL    HW137759   5.233   7.129   0.383 -0.0861  0.4294 -4.1625
12106SOL    HW237760   5.167   7.245   0.455  3.0492 -0.0054 -0.2285
12107SOL     OW37761   1.651   1.621   2.748  0.1722  0.4752  0.3572
12107SOL    HW137762   1.656   1.713   2.722  1.2815  0.5175  0.7057
12107SOL    HW237763   1.715   1.577   2.694  0.0643 -0.0004  0.6108
12108SOL     OW37764   7.433   1.058  11.827  0.0659  1.0230 -0.4373
12108SOL    HW137765   7.390   0.998  11.766 -0.8198  1.2144 -0.0096
12108SOL    HW237766   7.517   1.077  11.786  0.2865 -0.3656 -0.6614
12109SOL     OW37767   2.396   3.768  12.266  0.1727 -0.3046 -0.2928
12109SOL    HW137768   2.402   3.847  12.213 -2.0104  1.8506  2.4006
12109SOL    HW237769   2.333   3.713  12.221  0.2436  0.3371 -1.1924
12110SOL     OW37770   4.942   1.235  11.354  0.0497 -0.5877  0.3241
12110SOL    HW137771   4.926   1.244  11.448 -1.0537 -1.8984  0.2944
12110SOL    HW237772   4.883   1.298  11.313  0.2488 -0.2907  0.4956
12111SOL     OW37773   6.418   4.533   3.931 -0.6949 -0.3001  0.1245
12111SOL    HW137774   6.418   4.589   3.853  1.2242 -0.1848  0.1612
12111SOL    HW237775   6.372   4.585   3.998 -1.3630  0.0615 -0.5969
12112SOL     OW37776   7.568   7.510   3.689 -0.1566 -0.5844 -0.2367
12112SOL    HW137777   7.634   7.478   3.749  0.1109  0.4036  0.0117
12112SOL    HW237778   7.616   7.536   3.610 -0.5710 -2.5117 -1.1969
12113SOL     OW37779   7.843   1.953  10.482 -0.2315 -0.5181  0.1265
12113SOL    HW137780   7.937   1.971  10.483 -0.2782 -0.2355  1.5332
12113SOL    HW237781   7.815   1.979  10.394  1.2524 -2.1121 -0.8921
12114SOL     OW37782   4.903   5.507   9.140  0.3093  0.0730 -0.5929
12114SOL    HW137783   4.813   5.532   9.161  0.3744  0.2857 -0.5625
12114SOL    HW237784   4.897   5.415   9.113 -0.0229  0.2927 -1.2833
12115SOL     OW37785   7.230   3.236   2.439 -0.3672 -0.0996  0.2821
12115SOL    HW137786   7.176   3.297   2.488 -0.2992 -0.2634  0.5608
12115SOL    HW237787   7.229   3.156   2.491  0.9670  0.1998  0.8228
12116SOL     OW37788   3.293   5.334   1.986 -0.1925 -0.2185 -0.1554
12116SOL    HW137789   3.199   5.347   1.973 -0.5382 -2.0955  0.1346
12116SOL    HW237790   3.315   5.391   2.060 -0.9975  0.5950 -0.5315
12117SOL     OW37791   5.144   1.790   0.398  0.2394  0.5758 -0.2508
12117SOL    HW137792   5.183   1.767   0.482 -0.2369  1.9824  0.3754
12117SOL    HW237793   5.121   1.882   0.406  0.0058  0.6861 -1.8647
12118SOL     OW37794   2.318   1.730   8.983  0.2456  0.4776 -0.4630
12118SOL    HW137795   2.336   1.791   8.912  1.8850 -0.8556 -1.2511
12118SOL    HW237796   2.394   1.738   9.041 -0.2284  0.2430  0.2067
12119SOL     OW37797   4.436   0.619   5.828 -0.4677  0.2445 -0.3610
12119SOL    HW137798   4.467   0.634   5.917 -1.5651  1.8236 -0.1976
12119SOL    HW237799   4.505   0.567   5.787 -0.5213 -1.6845  1.7647
12120SOL     OW37800   3.016   1.116   4.607 -0.6498  0.0449  0.0907
12120SOL    HW137801   2.991   1.035   4.562 -1.4274  0.3662 -0.0744
12120SOL    HW237802   3.019   1.181   4.537 -3.0024  0.8058  0.6190
12121SOL     OW37803   0.374   0.950   6.746  0.2090 -0.0857  0.0726
12121SOL    HW137804   0.323   0.869   6.736 -0.1060 -0.3466  3.0489
12121SOL    HW237805   0.460   0.920   6.775  0.4622  0.6025  0.0346
12122SOL     OW37806   2.694   1.865   8.822 -0.1171  0.6000  0.1934
12122SOL    HW137807   2.759   1.835   8.886  0.1235  1.0056  0.1409
12122SOL    HW237808   2.727   1.950   8.792 -0.2324  0.4210 -0.4641
12123SOL     OW37809   5.143   7.069   8.297  0.0348 -0.2269 -0.5011
12123SOL    HW137810   5.145   7.164   8.307  0.3416 -0.2769 -0.0793
12123SOL    HW237811   5.102   7.055   8.212 -0.8209  0.2493 -0.1705
12124SOL     OW37812   4.633   3.481   5.619 -0.4388 -0.5461  0.0053
12124SOL    HW137813   4.660   3.472   5.710 -0.2209  0.1044  0.0097
12124SOL    HW237814   4.575   3.407   5.603 -3.2425  1.1267  1.6737
12125SOL     OW37815   2.067   0.662   8.215  0.0200 -0.0619 -0.2890
12125SOL    HW137816   2.062   0.745   8.167 -0.0372  0.0236 -0.1374
12125SOL    HW237817   2.135   0.612   8.170  1.0017  0.5876  0.4209
12126SOL     OW37818   3.009   2.454  11.935 -0.3039 -0.0590  0.5259
12126SOL    HW137819   2.962   2.489  12.010 -2.1497 -0.1168 -0.5550
12126SOL    HW237820   3.032   2.530  11.882  1.6724  0.0591  1.4515
12127SOL     OW37821   5.970   6.290   4.312 -0.0378  0.1686 -0.1431
12127SOL    HW137822   5.963   6.291   4.217  1.6425  1.2273 -0.2976
12127SOL    HW237823   6.064   6.298   4.329 -0.3613  0.5896  1.6055
12128SOL     OW37824   0.813   4.607   6.243  0.3811 -0.0825  0.4007
12128SOL    HW137825   0.859   4.596   6.160 -0.2870  0.0783  0.0068
12128SOL    HW237826   0.822   4.700   6.263 -1.8227  0.4959 -0.9194
12129SOL     OW37827   2.536   1.098   6.333 -0.1689  0.2864  0.2257
12129SOL    HW137828   2.501   1.079   6.420 -0.9436 -1.0249 -0.3386
12129SOL    HW237829   2.621   1.054   6.332  0.2417  1.0575  0.6160
12130SOL     OW37830   7.239   3.452   4.773  0.1475 -0.4931  0.3677
12130SOL    HW137831   7.155   3.495   4.789  0.5084  0.4725 -0.1962
12130SOL    HW237832   7.304   3.520   4.790  0.9706 -1.8094  2.9084
12131SOL     OW37833   6.370   6.412   8.827 -0.2502  0.3461  0.1020
12131SOL    HW137834   6.440   6.452   8.878 -0.3838  0.8368 -0.0914
12131SOL    HW237835   6.362   6.468   8.750  0.4521 -0.8107 -0.8264
12132SOL     OW37836   2.960   5.755   2.495 -0.1458  0.0922  0.3262
12132SOL    HW137837   2.902   5.733   2.422 -0.5965 -1.1967  1.0358
12132SOL    HW237838   2.902   5.791   2.561 -0.0135 -0.3481  0.6908
12133SOL     OW37839   3.049   0.552   6.828  0.0584  0.2191 -0.0743
12133SOL    HW137840   3.035   0.512   6.741 -0.8522  0.5778 -0.1070
12133SOL    HW237841   3.106   0.490   6.874  0.4043 -0.0639 -0.8644
12134SOL     OW37842   7.555   4.615   0.565  0.1807 -0.5926  0.0833
12134SOL    HW137843   7.644   4.640   0.541  0.6125 -0.3994  1.7450
12134SOL    HW237844   7.548   4.524   0.538  0.1797 -0.0706 -1.8362
12135SOL     OW37845   5.165   1.038   5.005 -0.0367  0.3897  0.1755
12135SOL    HW137846   5.167   1.092   4.926 -0.6607  2.0169  1.2091
12135SOL    HW237847   5.076   1.003   5.008 -0.2044  0.8346  0.4684
12136SOL     OW37848   5.856   1.740   3.556  0.7532  0.0281 -0.1764
12136SOL    HW137849   5.844   1.704   3.644  1.3027 -0.2758 -0.2169
12136SOL    HW237850   5.861   1.663   3.499  0.9773  0.2002 -0.3931
12137SOL     OW37851   7.610   6.074   7.803  0.4054  0.8105  0.0648
12137SOL    HW137852   7.619   6.082   7.708  1.0428 -2.1068 -0.2234
12137SOL    HW237853   7.690   6.112   7.838  1.0117  0.2735 -0.7043
12138SOL     OW37854   5.000   2.729   4.872  0.1062 -0.3182 -0.3963
12138SOL    HW137855   5.073   2.774   4.916 -0.6723  1.5844 -0.9273
12138SOL    HW237856   4.921   2.771   4.908 -0.6313 -0.6054 -1.6089
12139SOL     OW37857   2.788   7.868  11.127  0.2879  0.0424 -0.1488
12139SOL    HW137858   2.792   7.920  11.047  1.5023 -0.1151 -0.2046
12139SOL    HW237859   2.879   7.860  11.155  0.0961 -1.6649  0.0965
12140SOL     OW37860   2.343   3.598   0.097  0.3566 -0.2765 -0.0444
12140SOL    HW137861   2.425   3.643   0.116  1.3612 -1.5032 -1.3052
12140SOL    HW237862   2.329   3.612   0.004 -1.1574  0.3239  0.2361
12141SOL     OW37863   5.624   6.450   1.377 -0.4290  0.6315  0.2508
12141SOL    HW137864   5.605   6.434   1.285 -1.0255  1.2447  0.2569
12141SOL    HW237865   5.539   6.449   1.420 -0.0441 -1.2333  1.0873
12142SOL     OW37866   4.012   5.194  11.549  0.8500 -0.4762 -0.0279
12142SOL    HW137867   4.033   5.276  11.593  1.3823 -1.0402  0.7819
12142SOL    HW237868   4.045   5.125  11.607  1.2337 -1.2487 -1.1161
12143SOL     OW37869   4.932   1.708   1.254  0.5620 -0.0147  1.0104
12143SOL    HW137870   5.018   1.706   1.295  1.4830 -0.0823 -0.8082
12143SOL    HW237871   4.873   1.737   1.323  2.0814  0.3296  2.2231
12144SOL     OW37872   7.447   0.376   3.732  0.1144 -0.4255  0.4020
12144SOL    HW137873   7.516   0.419   3.682  0.4830 -1.1746  0.2404
12144SOL    HW237874   7.486   0.292   3.758 -0.4006 -0.4497  1.1376
12145SOL     OW37875   5.051   2.706  11.093  0.0172 -0.0138 -0.2768
12145SOL    HW137876   5.054   2.777  11.029 -1.6887  0.8123  0.4898
12145SOL    HW237877   5.100   2.738  11.168 -0.0075  0.0017 -0.2670
12146SOL     OW37878   6.281   5.387   9.926  0.1270 -0.2665 -0.3757
12146SOL    HW137879   6.263   5.302   9.966 -0.6766 -0.4826 -1.1893
12146SOL    HW237880   6.368   5.377   9.887  0.7470 -0.1857  0.9071
12147SOL     OW37881   7.448   3.428  12.055 -0.7509  0.3799  0.6223
12147SOL    HW137882   7.515   3.475  12.104  0.2022 -0.9892  0.6655
12147SOL    HW237883   7.480   3.338  12.049 -2.0387 -0.0478 -0.3544
12148SOL     OW37884   4.331   4.241   8.630 -0.1513 -0.6397 -0.1751
12148SOL    HW137885   4.399   4.190   8.587  1.4640 -0.7387  2.2846
12148SOL    HW237886   4.331   4.325   8.585  2.2490 -0.3293  0.2908
12149SOL     OW37887   7.824   6.241   2.866  0.1064  0.0876 -0.1998
12149SOL    HW137888   7.844   6.153   2.899  2.2366  1.3518  2.1684
12149SOL    HW237889   7.774   6.282   2.936  0.8362  1.4053 -0.4357
12150SOL     OW37890   7.351   3.751  10.167 -0.1617  0.0990 -0.2845
12150SOL    HW137891   7.299   3.675  10.140  0.4776 -0.4443  0.0003
12150SOL    HW237892   7.388   3.785  10.086  1.7660 -1.5372 -0.1552
12151SOL     OW37893   7.118   5.779   2.093 -0.3717 -0.2291 -0.1505
12151SOL    HW137894   7.210   5.773   2.115 -0.4826 -0.4620  0.2613
12151SOL    HW237895   7.090   5.689   2.078 -0.1764 -0.0409 -1.8025
12152SOL     OW37896   6.944   7.579  12.313 -0.0614  0.5656  0.5452
12152SOL    HW137897   6.921   7.671  12.309  0.0717  0.5732 -0.1624
12152SOL    HW237898   6.862   7.532  12.299 -0.0426  0.5835  0.3676
12153SOL     OW37899   3.779   4.978   9.339 -0.0532  0.4966  0.1499
12153SOL    HW137900   3.816   4.972   9.427  1.0685  1.5332 -0.2125
12153SOL    HW237901   3.686   4.962   9.351  0.0766  0.6368  1.5300
12154SOL     OW37902   2.760   1.237   2.001  0.8396 -0.2454  0.1013
12154SOL    HW137903   2.816   1.209   1.929  0.4686  0.8516 -0.6404
12154SOL    HW237904   2.694   1.293   1.960 -1.3362 -2.1440  0.8192
12155SOL     OW37905   1.606   0.991   3.697 -0.4700  0.7766 -0.3780
12155SOL    HW137906   1.518   0.986   3.660 -0.9072 -0.5776  0.7639
12155SOL    HW237907   1.617   0.909   3.746  1.4081  0.9308 -0.4401
12156SOL     OW37908   7.327   2.993   5.340  0.1841  0.1757 -0.3386
12156SOL    HW137909   7.285   3.075   5.366  2.2901  1.0980  0.4068
12156SOL    HW237910   7.316   2.989   5.245 -1.8129  0.1781 -0.1490
12157SOL     OW37911   3.925   1.909   5.903 -0.1984  0.4549  0.5584
12157SOL    HW137912   3.851   1.853   5.925  0.1760 -0.9478 -1.5100
12157SOL    HW237913   3.891   1.969   5.837  0.4097 -0.0097 -0.1920
12158SOL     OW37914   3.443   2.284  11.092  0.7203 -0.2840 -0.1388
12158SOL    HW137915   3.412   2.353  11.033 -0.5669 -0.3643  0.4185
12158SOL    HW237916   3.497   2.330  11.156  0.8116  0.0366 -0.4400
12159SOL     OW37917   1.952   5.368  11.992  0.0923 -0.1403  0.1535
12159SOL    HW137918   1.870   5.403  11.958  0.2352 -0.2197 -0.2813
12159SOL    HW237919   1.949   5.386  12.086 -1.5984 -2.4600  0.6245
12160SOL     OW37920   7.829   1.297  11.438  0.0499 -0.0531 -0.3081
12160SOL    HW137921   7.852   1.234  11.368  1.5963  2.2159 -1.9828
12160SOL    HW237922   7.905   1.298  11.495 -1.1938 -1.8638  1.5295
12161SOL     OW37923   4.516   5.956   9.050  0.0023  0.4374 -0.1827
12161SOL    HW137924   4.532   5.894   8.979  1.3645  2.0308 -1.3830
12161SOL    HW237925   4.593   6.014   9.049 -2.3884  3.9568 -1.1488
12162SOL     OW37926   5.241   6.362   8.782  0.2142  0.1446  0.3670
12162SOL    HW137927   5.181   6.305   8.736 -1.0868  0.9705  0.9782
12162SOL    HW237928   5.323   6.313   8.787  0.4674  0.0527 -2.8549
12163SOL     OW37929   1.329   0.795   0.702  0.1281  0.5183 -0.3583
12163SOL    HW137930   1.318   0.821   0.611 -2.2896  1.1489  0.0631
12163SOL    HW237931   1.251   0.826   0.747  0.7657 -0.6656  1.7549
12164SOL     OW37932   7.819   6.621   8.574  0.6083 -0.1634 -0.4323
12164SOL    HW137933   7.909   6.650   8.586  0.3130  0.4604  0.3318
12164SOL    HW237934   7.787   6.606   8.662  0.3493 -1.6176 -0.7482
12165SOL     OW37935   2.827   2.138  11.580  0.1943  0.0938 -0.5946
12165SOL    HW137936   2.843   2.221  11.623  1.1518  0.3165 -1.3361
12165SOL    HW237937   2.747   2.104  11.621  0.5974  0.6815  0.7330
12166SOL     OW37938   2.051   2.898  11.039  0.1337 -0.8671  0.6044
12166SOL    HW137939   2.098   2.905  11.123  2.6041 -2.1806 -0.5482
12166SOL    HW237940   2.056   2.985  11.001 -0.5153 -0.3992  1.5670
12167SOL     OW37941   2.204   0.726   0.463 -0.0915  0.5249 -0.0054
12167SOL    HW137942   2.147   0.748   0.390  1.3596  0.6934 -1.1463
12167SOL    HW237943   2.196   0.800   0.523 -0.7298  0.7507 -0.3604
12168SOL     OW37944   1.111   2.255  10.145 -0.6872  0.1001 -0.3890
12168SOL    HW137945   1.188   2.267  10.201 -0.8058  1.8352 -0.5518
12168SOL    HW237946   1.039   2.237  10.206 -0.4555  0.0716 -0.1251
12169SOL     OW37947   5.031   3.329   4.625 -0.2258  0.6504  0.5320
12169SOL    HW137948   4.940   3.322   4.654  0.0051 -1.0103  0.9857
12169SOL    HW237949   5.029   3.297   4.534 -0.0661  0.3763  0.6235
12170SOL     OW37950   7.752   5.476   7.533  0.2000 -0.3754 -0.3167
12170SOL    HW137951   7.822   5.459   7.596  1.3936 -0.2466 -1.5744
12170SOL    HW237952   7.707   5.553   7.568  1.7020  0.5229 -0.2919
12171SOL     OW37953   0.339   3.604  12.349 -0.1269 -0.0888 -0.7280
12171SOL    HW137954   0.283   3.554  12.409 -0.5842  1.9396  0.6463
12171SOL    HW237955   0.298   3.592  12.263 -2.0557  0.3952  0.0650
12172SOL     OW37956   1.065   2.136   7.706  0.5862  0.3691 -0.0176
12172SOL    HW137957   1.021   2.051   7.695 -0.2595  0.6232  1.2753
12172SOL    HW237958   1.117   2.146   7.626  1.6780 -1.9351  0.3284
12173SOL     OW37959   1.236   3.561   4.348  0.3103 -0.6674  0.8625
12173SOL    HW137960   1.195   3.625   4.290  1.0590 -0.0975  0.9565
12173SOL    HW237961   1.180   3.558   4.425  1.5049  1.6699  1.9299
12174SOL     OW37962   5.256   1.789  10.236 -0.1619  0.0617 -0.2606
12174SOL    HW137963   5.250   1.694  10.232 -0.1295  0.0079  0.8045
12174SOL    HW237964   5.172   1.818  10.271  0.1852  0.3552  0.3452
12175SOL     OW37965   3.563   4.617   9.891 -0.2322  0.1388  0.5796
12175SOL    HW137966   3.619   4.540   9.890 -0.3703 -0.0174  2.2644
12175SOL    HW237967   3.604   4.678   9.830  1.6302 -0.0764  1.5554
12176SOL     OW37968   2.810   1.791   8.414 -0.3445  0.6518  0.7491
12176SOL    HW137969   2.726   1.813   8.373 -0.7193 -0.0849  1.1028
12176SOL    HW237970   2.856   1.875   8.419 -0.2734  0.7724 -1.1609
12177SOL     OW37971   3.962   6.690   5.493 -0.0597  0.2678  0.5316
12177SOL    HW137972   3.985   6.754   5.561  0.3495 -0.6568  1.2927
12177SOL    HW237973   3.930   6.614   5.543  0.3674 -0.4767 -0.3154
12178SOL     OW37974   2.306   7.775  11.899  0.3062 -0.1227  0.1911
12178SOL    HW137975   2.368   7.713  11.861  2.7974  1.9329  0.5709
12178SOL    HW237976   2.285   7.738  11.985 -0.2817 -1.6362 -0.5751
12179SOL     OW37977   5.381   1.388   9.458 -0.0805  0.0765 -0.4401
12179SOL    HW137978   5.346   1.358   9.542  0.0549 -1.6766 -0.9758
12179SOL    HW237979   5.467   1.348   9.452 -0.0473  0.2712 -1.3737
12180SOL     OW37980   4.918   7.830   9.295  0.1915 -0.2759 -0.1923
12180SOL    HW137981   4.887   7.755   9.346  0.0151  1.2450  2.1286
12180SOL    HW237982   4.902   7.905   9.352  1.0201  1.4643 -2.1199
12181SOL     OW37983   7.477   7.240   2.148 -0.1102 -0.8515  0.5012
12181SOL    HW137984   7.536   7.164   2.157  0.2642 -0.6884 -0.4202
12181SOL    HW237985   7.394   7.210   2.183 -0.0010 -1.7461  0.0349
12182SOL     OW37986   5.664   6.921   9.134 -0.4957 -0.4888  0.4502
12182SOL    HW137987   5.745   6.922   9.084  0.0842  0.8921  1.3418
12182SOL    HW237988   5.644   6.828   9.148  1.9214 -0.8972  1.7479
12183SOL     OW37989   5.249   5.839  10.095  0.5631  0.2919  0.3399
12183SOL    HW137990   5.191   5.889  10.152  0.4156  0.9379 -0.3570
12183SOL    HW237991   5.207   5.754  10.087 -0.7885  1.0230 -0.8583
12184SOL     OW37992   1.650   4.080   5.106 -0.1098 -0.1170 -0.2043
12184SOL    HW137993   1.573   4.137   5.100  0.6219  0.7999 -1.6073
12184SOL    HW237994   1.636   4.014   5.038 -0.6462 -1.2622  0.9846
12185SOL     OW37995   5.053   0.950   6.680 -0.3758 -0.1295 -0.4438
12185SOL    HW137996   4.967   0.958   6.639 -0.1817 -0.0412 -0.8363
12185SOL    HW237997   5.111   0.919   6.610  0.2822  1.4932 -0.6762
12186SOL     OW37998   6.454   2.851   3.814  0.2404 -0.0133  0.0504
12186SOL    HW137999   6.450   2.812   3.727  0.9083 -1.1759  0.5150
12186SOL    HW238000   6.363   2.865   3.839 -0.0114 -1.0807 -0.2365
12187SOL     OW38001   2.130   5.801  11.353  0.1288 -0.3452  0.2339
12187SOL    HW138002   2.078   5.879  11.333  0.6817  0.1412  0.6272
12187SOL    HW238003   2.068   5.739  11.392 -0.1378  0.2746  0.8141
12188SOL     OW38004   5.733   7.891   1.462  0.5022 -0.5201  0.2812
12188SOL    HW138005   5.733   7.983   1.489  1.2745 -0.3971 -0.1023
12188SOL    HW238006   5.733   7.893   1.366  0.3548 -0.9261  0.2676
12189SOL     OW38007   3.657   1.802  11.393  0.2795  0.0260  0.2425
12189SOL    HW138008   3.644   1.897  11.401 -0.6897 -0.0457 -0.3510
12189SOL    HW238009   3.648   1.769  11.482  0.3343  0.4605  0.4108
12190SOL     OW38010   3.375   6.188   2.917 -0.2701  0.1352  0.3282
12190SOL    HW138011   3.326   6.139   2.851  2.1733 -1.2121 -0.5776
12190SOL    HW238012   3.325   6.175   2.998 -1.8167 -0.4873 -0.6740
12191SOL     OW38013   5.796   1.841  10.703  0.2081  0.5192 -0.5175
12191SOL    HW138014   5.777   1.896  10.779  0.0621 -0.6683  0.3307
12191SOL    HW238015   5.871   1.789  10.728 -0.7167 -0.9228 -0.6174
12192SOL     OW38016   0.406   6.230  11.690 -1.3026 -0.3408 -0.0540
12192SOL    HW138017   0.369   6.316  11.707  0.5327  0.6252 -0.6687
12192SOL    HW238018   0.443   6.203  11.774  0.2064  0.5672 -0.3991
12193SOL     OW38019   2.404   6.159  12.250 -0.2812  0.5705  0.1296
12193SOL    HW138020   2.324   6.139  12.298 -1.1005  0.2270 -1.3221
12193SOL    HW238021   2.379   6.153  12.158  1.3531  0.7318 -0.3558
12194SOL     OW38022   1.719   0.566   1.218  0.4504  0.0320 -0.1194
12194SOL    HW138023   1.722   0.479   1.178  0.1936 -0.0621  0.0597
12194SOL    HW238024   1.715   0.549   1.312  0.3427  0.2365 -0.0859
12195SOL     OW38025   0.406   5.118  10.799  0.3149 -0.0519  0.1584
12195SOL    HW138026   0.345   5.126  10.726 -1.6249  0.9867  1.7864
12195SOL    HW238027   0.428   5.025  10.802  0.0262 -0.2027 -1.3898
12196SOL     OW38028   3.128   1.455   5.673  0.0586 -0.1839  0.3369
12196SOL    HW138029   3.153   1.545   5.691 -1.2340 -0.1708  2.4533
12196SOL    HW238030   3.211   1.409   5.660  0.9408  0.7510  2.2448
12197SOL     OW38031   4.391   6.271  11.789 -0.0738  0.5552 -0.2470
12197SOL    HW138032   4.393   6.194  11.732 -1.9352  0.4395 -0.1923
12197SOL    HW238033   4.303   6.306  11.780  0.5589  2.3830  0.1693
12198SOL     OW38034   1.228   4.523  12.113 -0.2166 -0.3086 -0.7390
12198SOL    HW138035   1.157   4.514  12.177  0.3165 -0.9543 -0.2176
12198SOL    HW238036   1.230   4.616  12.092 -1.7649 -0.4050 -1.4035
12199SOL     OW38037   5.892   0.180   8.481  0.1940  0.4164 -0.1577
12199SOL    HW138038   5.879   0.275   8.478 -1.1261  0.2628  0.2254
12199SOL    HW238039   5.820   0.144   8.429 -0.1795 -0.4382  0.9168
12200SOL     OW38040   0.885   3.100   5.401 -0.0889  0.0182 -0.1017
12200SOL    HW138041   0.840   3.095   5.485  0.9183 -0.4104  0.4267
12200SOL    HW238042   0.833   3.043   5.343 -2.5131  2.5614 -0.6554
12201SOL     OW38043   0.369   5.121   9.089 -0.2616  0.0881  0.6339
12201SOL    HW138044   0.399   5.163   9.008 -0.4521 -0.3831  0.3071
12201SOL    HW238045   0.305   5.057   9.059 -1.0520  0.5771  1.2556
12202SOL     OW38046   3.661   5.414   4.612 -0.0235 -0.4409 -0.4379
12202SOL    HW138047   3.706   5.330   4.608  0.3632 -0.3353  1.1674
12202SOL    HW238048   3.568   5.392   4.600  0.2088 -0.8905 -1.6052
12203SOL     OW38049   3.601   2.294   5.276 -0.1285 -0.4995  0.2911
12203SOL    HW138050   3.569   2.219   5.325 -0.6477 -0.1203  0.5390
12203SOL    HW238051   3.589   2.368   5.335 -2.7552  0.3238 -1.1245
12204SOL     OW38052   0.123   2.816   1.844  0.0909  0.2490 -0.3257
12204SOL    HW138053   0.049   2.815   1.784 -0.2694 -2.9470 -0.0072
12204SOL    HW238054   0.186   2.754   1.807  0.6842 -0.3602  1.5487
12205SOL     OW38055   1.269   0.734   8.387  0.2916 -0.4877  0.6015
12205SOL    HW138056   1.275   0.673   8.460  2.0753 -0.4719  0.5215
12205SOL    HW238057   1.233   0.682   8.315 -0.3316 -0.8247  1.1513
12206SOL     OW38058   5.906   6.872   5.205  0.2661  0.3413  0.2987
12206SOL    HW138059   5.864   6.952   5.238 -0.1714  0.9247 -1.5415
12206SOL    HW238060   5.998   6.895   5.193  0.6241 -0.1450  1.8580
12207SOL     OW38061   2.951   0.487   9.044  0.2985 -0.2213 -0.2462
12207SOL    HW138062   2.985   0.495   9.133 -0.8444  1.4302  0.0896
12207SOL    HW238063   3.016   0.436   8.998  2.8898  2.1244  0.5413
12208SOL     OW38064   3.535   1.185   8.711  0.1763  0.5070 -0.0871
12208SOL    HW138065   3.608   1.236   8.677  1.9944 -1.7028  0.2700
12208SOL    HW238066   3.459   1.215   8.661  0.9840  3.8741  0.5055
12209SOL     OW38067   7.483   2.023   8.718 -0.2096 -0.1548  0.6738
12209SOL    HW138068   7.409   2.052   8.770  0.4875  0.0055  1.5993
12209SOL    HW238069   7.527   2.104   8.691  0.1476 -0.2700  0.9033
12210SOL     OW38070   5.324   1.221  11.383 -0.2766  0.4960  0.0821
12210SOL    HW138071   5.292   1.155  11.322 -0.3867  1.0014 -0.4164
12210SOL    HW238072   5.341   1.298  11.328  1.2285  0.4289  0.4217
12211SOL     OW38073   0.833   1.526   2.517  0.4318 -0.0477 -0.2759
12211SOL    HW138074   0.863   1.440   2.548 -0.3847 -0.2875 -0.1210
12211SOL    HW238075   0.770   1.505   2.447 -0.3044  0.3976  0.2420
12212SOL     OW38076   5.748   1.206  10.399 -0.1248 -0.0487 -0.0143
12212SOL    HW138077   5.838   1.227  10.423  0.6636 -0.6142 -2.2491
12212SOL    HW238078   5.732   1.256  10.319 -2.0330  0.5057  0.6544
12213SOL     OW38079   3.413   1.424   5.730 -0.1881  0.0039 -0.5373
12213SOL    HW138080   3.448   1.513   5.739 -0.2501  0.0180 -0.4244
12213SOL    HW238081   3.449   1.392   5.648  1.5617 -0.6543  0.4160
12214SOL     OW38082   5.621   3.592   0.648 -0.1936  0.2923 -0.5462
12214SOL    HW138083   5.565   3.534   0.596 -0.0372 -0.2298 -0.1395
12214SOL    HW238084   5.697   3.538   0.670  0.1419  0.7779 -0.4950
12215SOL     OW38085   3.127   5.488   5.777 -0.4497 -0.0821  0.0180
12215SOL    HW138086   3.035   5.466   5.764 -1.4777  4.7018 -3.7660
12215SOL    HW238087   3.168   5.472   5.692  1.3936  0.9969  0.6475
12216SOL     OW38088   2.955   6.661   7.216 -0.0301  0.3454 -0.0809
12216SOL    HW138089   2.883   6.622   7.266  1.6591 -2.4085  0.4340
12216SOL    HW238090   2.930   6.647   7.125  0.1727 -1.3931  0.0913
12217SOL     OW38091   1.404   0.821  11.703 -0.6991  0.6331  0.1026
12217SOL    HW138092   1.358   0.737  11.704 -1.7279  1.1834 -0.3270
12217SOL    HW238093   1.496   0.797  11.717 -0.9017 -0.6073 -0.5031
12218SOL     OW38094   4.674   1.302   4.831  0.3604  0.0336 -0.3103
12218SOL    HW138095   4.666   1.380   4.776  0.2917  0.2322 -0.0238
12218SOL    HW238096   4.639   1.231   4.777  1.6316 -0.0438 -1.0651
12219SOL     OW38097   1.277   5.638   2.112  0.4494  0.2249  0.5896
12219SOL    HW138098   1.244   5.548   2.102  1.6622 -0.0453 -1.9392
12219SOL    HW238099   1.221   5.691   2.056  0.5535  0.8351  1.0494
12220SOL     OW38100   2.763   0.681  11.003 -0.2233  0.3352  0.3709
12220SOL    HW138101   2.814   0.603  10.982  1.7980  1.0600  2.2030
12220SOL    HW238102   2.699   0.651  11.068 -0.3315 -0.0250  0.1062
12221SOL     OW38103   3.557   4.585   6.201  0.0537  0.5485  0.4051
12221SOL    HW138104   3.521   4.657   6.150 -1.5316 -1.5710 -1.7163
12221SOL    HW238105   3.647   4.576   6.168 -0.1931  0.6981 -0.3384
12222SOL     OW38106   7.930   6.220   2.613 -0.4656  0.2660 -0.1321
12222SOL    HW138107   7.865   6.164   2.569  0.2607 -1.9278  1.4161
12222SOL    HW238108   7.888   6.243   2.696  0.4272 -0.5856  0.5714
12223SOL     OW38109   5.822   5.395   7.819 -0.1609 -0.2548  0.2574
12223SOL    HW138110   5.807   5.388   7.913 -0.9301  0.1470  0.1772
12223SOL    HW238111   5.847   5.487   7.805 -0.7458 -0.1315 -0.0107
12224SOL     OW38112   6.097   0.082   6.838 -0.2622 -0.5309  0.1701
12224SOL    HW138113   6.050   0.094   6.755 -0.9033 -1.1972  0.4285
12224SOL    HW238114   6.054   0.007   6.880  1.7136 -1.8975 -0.0792
12225SOL     OW38115   1.250   2.595  11.882 -0.6078  0.7363  0.6527
12225SOL    HW138116   1.264   2.689  11.871  1.0288  0.4572 -0.0566
12225SOL    HW238117   1.298   2.556  11.809  0.1721 -0.7043  1.8739
12226SOL     OW38118   5.236   0.069   6.174  0.0831  0.1260 -0.3525
12226SOL    HW138119   5.199   0.084   6.261  0.0732  0.7426 -0.4596
12226SOL    HW238120   5.231  -0.026   6.162  1.5030 -0.1494  0.9438
12227SOL     OW38121   2.447   0.795   9.924  0.1490 -0.5506 -0.2445
12227SOL    HW138122   2.445   0.701   9.943 -0.2775 -0.4903  0.0288
12227SOL    HW238123   2.445   0.801   9.829 -1.9433 -0.7927 -0.2664
12228SOL     OW38124   5.596   1.305   4.871  0.0807  0.0661  0.4773
12228SOL    HW138125   5.586   1.261   4.955 -2.5601  0.2613  0.3529
12228SOL    HW238126   5.581   1.398   4.889 -3.2787 -0.1437 -0.4533
12229SOL     OW38127   1.945   5.351   3.102 -0.4802  0.7954  0.0028
12229SOL    HW138128   1.992   5.306   3.172  0.9903  2.2765  0.0318
12229SOL    HW238129   1.900   5.423   3.147 -1.0021  0.6781 -0.3305
12230SOL     OW38130   0.631   3.439   2.915 -0.2098 -0.1615  0.4094
12230SOL    HW138131   0.606   3.459   3.005  0.6515  0.2527  0.5662
12230SOL    HW238132   0.684   3.514   2.888 -1.8609  0.5535 -1.0287
12231SOL     OW38133   4.163   2.367   0.613  0.1354  0.0739 -0.1865
12231SOL    HW138134   4.170   2.422   0.691  0.0812 -0.0874 -0.0667
12231SOL    HW238135   4.179   2.427   0.539 -0.6230  0.3866 -0.0965
12232SOL     OW38136   6.698   4.732   2.485  0.5642  0.8489 -0.5662
12232SOL    HW138137   6.653   4.658   2.445 -0.0450  1.0364 -0.2300
12232SOL    HW238138   6.791   4.716   2.467  0.3516  0.5648 -1.4247
12233SOL     OW38139   0.265   7.412   6.125 -0.0314 -0.0384 -0.6396
12233SOL    HW138140   0.240   7.502   6.143 -1.4685 -0.0060 -2.4606
12233SOL    HW238141   0.328   7.418   6.053 -0.4618 -0.4727 -1.0678
12234SOL     OW38142   5.240   4.548   7.605 -0.1776  0.0161 -0.0901
12234SOL    HW138143   5.239   4.460   7.643 -0.4638 -0.5233 -1.3064
12234SOL    HW238144   5.330   4.562   7.578  0.4882  1.1648  2.4021
12235SOL     OW38145   1.766   4.701   8.489  0.2124  0.1019 -0.0815
12235SOL    HW138146   1.702   4.630   8.482 -0.2053  0.3599  0.9738
12235SOL    HW238147   1.714   4.781   8.487  0.6721  0.3970 -1.1328
12236SOL     OW38148   0.945   1.552   4.352  0.1200  0.5691 -0.4674
12236SOL    HW138149   0.964   1.485   4.286 -0.5897  0.7138 -0.8245
12236SOL    HW238150   0.990   1.521   4.431 -0.9847 -0.8205 -0.3485
12237SOL     OW38151   5.781   0.352   0.283 -0.2266 -1.0636  0.3643
12237SOL    HW138152   5.800   0.276   0.229  1.0707  0.8590 -2.0765
12237SOL    HW238153   5.867   0.385   0.310 -0.4377  1.6094 -1.8184
12238SOL     OW38154   3.337   2.517   6.030 -0.0811  0.2656 -0.0975
12238SOL    HW138155   3.271   2.539   6.096  0.4058  0.8914  0.1907
12238SOL    HW238156   3.322   2.581   5.960  1.3536  1.5829  0.7512
12239SOL     OW38157   4.114   4.284   3.343  0.3299 -0.2664  0.5790
12239SOL    HW138158   4.051   4.356   3.347  1.0006  0.2863  2.3337
12239SOL    HW238159   4.170   4.306   3.268 -0.2648  0.3380  0.2964
12240SOL     OW38160   1.636   0.676   5.578 -0.0410 -0.3453  0.2844
12240SOL    HW138161   1.623   0.701   5.486  0.4350 -1.6673 -0.1572
12240SOL    HW238162   1.698   0.740   5.612 -0.6967  0.5317 -0.1270
12241SOL     OW38163   3.868   7.800  11.410 -0.0960 -0.5172 -0.3245
12241SOL    HW138164   3.785   7.804  11.363 -1.1485 -0.3877  1.4378
12241SOL    HW238165   3.846   7.761  11.494  2.4706 -5.2601 -1.4913
12242SOL     OW38166   4.014   5.547   4.910  0.5174 -0.3135  0.8274
12242SOL    HW138167   3.951   5.524   4.978  0.4622  0.2259  0.9688
12242SOL    HW238168   4.025   5.642   4.919 -0.4010 -0.0280 -0.7080
12243SOL     OW38169   2.739   0.370   2.697  0.3464 -0.4922  0.5375
12243SOL    HW138170   2.687   0.431   2.645 -0.8532 -1.2804  0.7530
12243SOL    HW238171   2.675   0.328   2.755  1.3654 -0.9267  1.3835
12244SOL     OW38172   7.072   7.424   3.629  0.3271  0.2107  0.5408
12244SOL    HW138173   7.019   7.419   3.550  1.3706  0.3839 -0.1889
12244SOL    HW238174   7.142   7.485   3.607  0.8777 -0.0720  1.4614
12245SOL     OW38175   2.894   3.108   8.910  0.1634 -0.1974  0.7817
12245SOL    HW138176   2.816   3.073   8.867  0.7479  0.8776 -1.2871
12245SOL    HW238177   2.875   3.201   8.921  1.3648  0.2034 -0.3336
12246SOL     OW38178   1.041   1.513   9.389 -0.4702 -0.4217  0.0028
12246SOL    HW138179   1.112   1.539   9.330  0.5704 -3.5548 -0.2935
12246SOL    HW238180   0.967   1.569   9.364  0.5165 -0.2462 -2.9051
12247SOL     OW38181   3.606   2.498   0.154  0.0192  0.2123  0.4784
12247SOL    HW138182   3.692   2.536   0.169 -0.0919  0.0822  1.5871
12247SOL    HW238183   3.550   2.574   0.135  0.1347  0.4474  1.0302
12248SOL     OW38184   2.590   4.622  10.132  0.2434 -0.7251  0.5532
12248SOL    HW138185   2.630   4.702  10.098  1.0546 -0.5371  1.8984
12248SOL    HW238186   2.562   4.644  10.220 -1.8476 -1.2046  0.0673
12249SOL     OW38187   1.329   4.998   8.016 -0.1828 -0.5775  0.2931
12249SOL    HW138188   1.235   5.015   8.010 -0.2653 -1.0085  0.3366
12249SOL    HW238189   1.337   4.931   8.084  0.3813  1.3035  2.1869
12250SOL     OW38190   0.139   3.903   9.037 -0.2521 -0.3752  0.0816
12250SOL    HW138191   0.191   3.852   9.099  0.2893  0.4427  0.3226
12250SOL    HW238192   0.078   3.952   9.091 -0.4945 -0.4565 -0.1155
12251SOL     OW38193   2.658   1.670   4.144  0.5155 -0.0296  0.3228
12251SOL    HW138194   2.589   1.630   4.197  0.8321  1.5979  2.0616
12251SOL    HW238195   2.614   1.739   4.095  0.3185 -1.2108 -1.2596
12252SOL     OW38196   2.035   0.849   4.288 -0.0436 -0.2713 -0.5701
12252SOL    HW138197   2.026   0.944   4.298  0.4203 -0.3741  1.1436
12252SOL    HW238198   2.129   0.835   4.287 -0.0540 -0.9036  1.8561
12253SOL     OW38199   1.240   0.711   0.250  0.5789  0.5034  0.2225
12253SOL    HW138200   1.310   0.694   0.314 -0.1840 -3.3406  0.3146
12253SOL    HW238201   1.162   0.727   0.304  0.3755 -0.5611  0.2697
12254SOL     OW38202   3.597   4.348   1.076  0.2282 -0.2890 -0.0748
12254SOL    HW138203   3.625   4.399   1.000  0.1117 -0.7365 -0.4191
12254SOL    HW238204   3.530   4.402   1.118  0.5357  0.1124 -0.0950
12255SOL     OW38205   6.642   5.640  10.422 -0.2588  0.5990 -0.3479
12255SOL    HW138206   6.651   5.622  10.329 -0.4698  0.3731 -0.3272
12255SOL    HW238207   6.730   5.661  10.452 -0.3083  1.4279 -0.7513
12256SOL     OW38208   3.395   7.188  11.219 -0.2746 -0.1600 -0.7453
12256SOL    HW138209   3.383   7.205  11.125 -0.3353  1.1288 -0.5185
12256SOL    HW238210   3.308   7.197  11.256 -0.3198 -1.0729 -0.6130
12257SOL     OW38211   2.188   6.758   6.168  0.1907 -0.1163  0.0615
12257SOL    HW138212   2.216   6.681   6.120  0.2892 -0.7578  1.1258
12257SOL    HW238213   2.203   6.736   6.260  0.5419  1.2945  0.3676
12258SOL     OW38214   5.136   7.593   2.464  0.5692 -0.0660  0.2621
12258SOL    HW138215   5.124   7.598   2.369 -2.2570  1.3336  0.5604
12258SOL    HW238216   5.102   7.507   2.489 -0.7556  0.4018  0.1627
12259SOL     OW38217   0.320   0.507   7.895  0.0136 -0.1876  0.0682
12259SOL    HW138218   0.313   0.488   7.989 -0.4640 -0.3885 -0.0039
12259SOL    HW238219   0.238   0.552   7.874 -0.8732 -2.0285 -0.6830
12260SOL     OW38220   3.540   3.380   1.008  0.5015  0.2064  0.0648
12260SOL    HW138221   3.618   3.434   0.997  0.2337  0.4787 -0.5685
12260SOL    HW238222   3.484   3.430   1.066  1.4685 -0.7385  1.9055
12261SOL     OW38223   7.826   5.646  12.140  0.0438  0.0987  0.1510
12261SOL    HW138224   7.842   5.733  12.176 -1.6105  0.8381 -0.7881
12261SOL    HW238225   7.732   5.635  12.145  0.2286 -1.7098  0.3421
12262SOL     OW38226   0.099   6.994   4.195  0.5598  0.6154  0.0827
12262SOL    HW138227   0.014   7.023   4.228 -0.5697 -1.0880 -1.2092
12262SOL    HW238228   0.138   6.945   4.268  0.7057  1.8291  0.8538
12263SOL     OW38229   1.424   0.220   2.663  0.0618 -0.3162 -0.6037
12263SOL    HW138230   1.449   0.172   2.742 -0.0170  0.0083 -0.3809
12263SOL    HW238231   1.414   0.311   2.691 -1.7084 -0.4727 -0.5908
12264SOL     OW38232   5.803   4.705   4.069  0.2240 -0.0921 -0.3405
12264SOL    HW138233   5.833   4.736   4.155  0.8836  0.2354 -0.6829
12264SOL    HW238234   5.729   4.762   4.048  0.0336 -0.1982  0.0266
12265SOL     OW38235   5.698   7.451   3.891 -0.7559  0.5099 -0.1353
12265SOL    HW138236   5.721   7.524   3.834 -0.7637  0.9569  0.4325
12265SOL    HW238237   5.768   7.386   3.876 -0.5015  0.8212 -0.2997
12266SOL     OW38238   3.552   6.390   2.805 -0.0642  0.6561 -1.0022
12266SOL    HW138239   3.563   6.442   2.885  2.0930 -2.3400  0.8835
12266SOL    HW238240   3.467   6.347   2.816  1.3192 -1.8246  1.2427
12267SOL     OW38241   0.259   6.007   8.688  0.1330 -0.0068  0.2182
12267SOL    HW138242   0.233   5.958   8.766  1.0643 -0.2488  0.3838
12267SOL    HW238243   0.251   6.099   8.714 -0.1267 -0.0810  0.4064
12268SOL     OW38244   5.924   6.876   5.993  0.0494  0.1661 -0.3380
12268SOL    HW138245   5.910   6.971   5.985  0.5647  0.1908 -1.0759
12268SOL    HW238246   6.004   6.860   5.943  0.1834 -0.6031  0.1230
12269SOL     OW38247   1.579   2.693   7.886  0.0774  0.1812 -0.0858
12269SOL    HW138248   1.530   2.764   7.925  0.3337  1.0335 -1.2387
12269SOL    HW238249   1.661   2.734   7.857  0.5945 -0.7667  0.0039
12270SOL     OW38250   4.667   2.476  11.573  0.0267 -0.1573  0.4427
12270SOL    HW138251   4.728   2.525  11.627  0.5618 -0.8885  0.5135
12270SOL    HW238252   4.610   2.543  11.534 -0.4997  0.3627  2.0461
12271SOL     OW38253   6.119   7.585   9.874  0.7650 -0.7599 -0.1498
12271SOL    HW138254   6.064   7.534   9.934 -1.4006 -2.7217 -3.4280
12271SOL    HW238255   6.075   7.670   9.867  0.0169 -1.1391 -0.2140
12272SOL     OW38256   6.714   1.195   4.314  0.2391 -0.1053  0.3384
12272SOL    HW138257   6.732   1.289   4.316  1.5118 -0.3220  0.1499
12272SOL    HW238258   6.784   1.159   4.260  0.5496 -1.3248  1.5160
12273SOL     OW38259   6.595   1.628  11.421  0.4051 -0.3118 -0.1732
12273SOL    HW138260   6.523   1.691  11.426  0.2797 -0.4818  0.2088
12273SOL    HW238261   6.615   1.621  11.328  0.9165  0.8501 -0.1723
12274SOL     OW38262   6.181   7.240  10.010 -0.1820  0.3902 -0.1499
12274SOL    HW138263   6.180   7.184  10.088  1.0924 -2.0942 -1.7950
12274SOL    HW238264   6.274   7.256   9.993 -0.4663  1.3308 -0.9201
12275SOL     OW38265   5.398   2.582   3.885 -0.4094  0.1991 -0.8231
12275SOL    HW138266   5.468   2.519   3.902  1.1319  2.2052  0.7268
12275SOL    HW238267   5.330   2.560   3.949 -0.5499 -0.7728 -1.2870
12276SOL     OW38268   6.296   3.772   8.299 -0.1104  0.4706 -0.0280
12276SOL    HW138269   6.242   3.799   8.226  0.6246  1.1003 -0.3550
12276SOL    HW238270   6.361   3.842   8.309  1.0850 -0.5790 -0.1049
12277SOL     OW38271   5.686   7.547   8.592  0.0506 -0.2963  0.2776
12277SOL    HW138272   5.670   7.478   8.657 -1.3169  1.4475  1.9321
12277SOL    HW238273   5.753   7.511   8.534 -0.0137 -2.6682  1.5470
12278SOL     OW38274   0.634   3.066   9.666 -0.4783 -0.0932  0.0713
12278SOL    HW138275   0.682   2.985   9.683  1.2107  0.7034 -0.5490
12278SOL    HW238276   0.674   3.130   9.724  0.0614  0.8661 -1.2877
12279SOL     OW38277   2.261   6.381   2.693 -0.0543 -0.1179 -0.1619
12279SOL    HW138278   2.325   6.327   2.647  0.4814 -1.6635  2.2684
12279SOL    HW238279   2.196   6.403   2.626  2.6497  1.0684 -2.5905
12280SOL     OW38280   6.232   0.145   4.959  0.3720 -0.0051 -0.0605
12280SOL    HW138281   6.284   0.186   5.028 -0.0079 -1.1166  0.9193
12280SOL    HW238282   6.287   0.075   4.925 -0.0783 -0.5503  0.3050
12281SOL     OW38283   6.116   3.513   9.075 -0.7379 -0.6044 -0.2900
12281SOL    HW138284   6.132   3.520   8.981  0.3527  0.0119 -0.0738
12281SOL    HW238285   6.021   3.508   9.083 -1.0566  2.1945 -1.2701
12282SOL     OW38286   6.009   6.810  11.621 -0.4430  0.3717  0.1992
12282SOL    HW138287   5.954   6.734  11.641 -1.5716  0.6037 -1.7627
12282SOL    HW238288   5.948   6.884  11.618  0.2177  0.9091 -0.4218
12283SOL     OW38289   7.593   6.337   9.443  0.5095 -0.1455  0.3016
12283SOL    HW138290   7.595   6.374   9.355 -0.1447 -0.6653  0.0585
12283SOL    HW238291   7.564   6.247   9.431  0.5907 -0.2775  1.0305
12284SOL     OW38292   1.031   7.383   3.508  0.2969 -0.0652  0.6208
12284SOL    HW138293   1.121   7.417   3.501 -0.1429  0.8264 -2.1301
12284SOL    HW238294   1.036   7.295   3.469  0.0581 -0.2569  1.0127
12285SOL     OW38295   5.705   2.845   6.603  0.3061 -0.2152 -0.0971
12285SOL    HW138296   5.797   2.856   6.580 -0.1764  0.9622 -1.6707
12285SOL    HW238297   5.674   2.774   6.547 -0.2142  0.7980 -1.1380
12286SOL     OW38298   4.557   5.432   7.617 -0.5704  0.1724 -0.6420
12286SOL    HW138299   4.590   5.388   7.539  2.9864 -0.1034  0.8178
12286SOL    HW238300   4.571   5.369   7.688 -1.7006  1.1968  0.5568
12287SOL     OW38301   6.127   3.602   9.925  0.7745  0.5491  0.2994
12287SOL    HW138302   6.151   3.680   9.875 -0.0177 -0.4035 -1.6584
12287SOL    HW238303   6.209   3.553   9.935  1.2620  1.5420  1.4748
12288SOL     OW38304   2.763   0.238   6.432 -0.3748 -0.1738 -0.1134
12288SOL    HW138305   2.678   0.223   6.391 -1.4278  2.4752  0.9004
12288SOL    HW238306   2.824   0.244   6.358 -1.3170 -0.5242 -0.9464
12289SOL     OW38307   2.428   0.025   1.611 -0.2068 -0.2850  0.2076
12289SOL    HW138308   2.459  -0.063   1.632  1.4961  0.3893  0.6672
12289SOL    HW238309   2.333   0.018   1.616 -0.1553 -2.2934 -0.6242
12290SOL     OW38310   4.806   5.809   9.647 -0.2703  0.3543 -0.0173
12290SOL    HW138311   4.834   5.840   9.734 -0.4969 -2.7461  1.2934
12290SOL    HW238312   4.885   5.775   9.607 -0.0320  2.4009 -1.4118
12291SOL     OW38313   6.220   7.603   0.237  0.1512 -0.0886 -0.0083
12291SOL    HW138314   6.155   7.618   0.305  0.2170 -1.4868  0.3917
12291SOL    HW238315   6.169   7.599   0.156 -0.1102  0.0534  0.1492
12292SOL     OW38316   6.953   1.017   1.481  0.3279 -0.1009  0.3865
12292SOL    HW138317   6.904   0.942   1.450 -0.1679  0.1717  0.5034
12292SOL    HW238318   6.990   0.989   1.565  0.1175 -0.1991  0.4451
12293SOL     OW38319   2.011   7.750   8.987  0.4420 -0.3155  0.1132
12293SOL    HW138320   2.098   7.787   9.001  0.9573 -1.3508 -0.2322
12293SOL    HW238321   1.959   7.783   9.060  0.8875  1.0051 -0.1455
12294SOL     OW38322   3.441   4.881  11.550 -0.3094  0.1606 -0.3365
12294SOL    HW138323   3.464   4.946  11.483 -1.9218  1.4480  0.2944
12294SOL    HW238324   3.470   4.921  11.632  0.7984 -0.9950 -0.1272
12295SOL     OW38325   1.636   1.452   7.845 -0.4343 -0.6698 -0.0958
12295SOL    HW138326   1.570   1.384   7.835 -0.6934 -0.5141  0.5330
12295SOL    HW238327   1.647   1.488   7.757 -1.4512 -0.4462 -0.1356
12296SOL     OW38328   6.283   7.236   3.047  1.2175  0.3061  0.1633
12296SOL    HW138329   6.322   7.282   3.121  1.8956  0.2729 -0.1647
12296SOL    HW238330   6.331   7.268   2.971  0.0367  0.8905 -0.3615
12297SOL     OW38331   1.118   0.848  10.603 -0.4485  0.0092 -0.3006
12297SOL    HW138332   1.196   0.805  10.569  0.5560  1.5883 -0.1079
12297SOL    HW238333   1.143   0.940  10.613 -1.7312  0.2345  1.5552
12298SOL     OW38334   0.448   6.898   2.294  0.4503  0.2470  0.2707
12298SOL    HW138335   0.407   6.825   2.248  0.4254  0.8913 -0.7573
12298SOL    HW238336   0.515   6.857   2.348 -0.2147 -0.6272  0.4530
12299SOL     OW38337   4.306   5.143   7.320  0.1388  0.5861 -0.5064
12299SOL    HW138338   4.396   5.110   7.322 -0.2167 -0.4083  0.0533
12299SOL    HW238339   4.259   5.088   7.383 -0.5966  1.8999  0.1330
12300SOL     OW38340   2.843   5.917  12.320 -0.1897 -0.0289  0.1436
12300SOL    HW138341   2.800   5.831  12.320 -2.2627  0.9258 -0.5685
12300SOL    HW238342   2.815   5.957  12.402  3.1440 -1.0435  1.9145
12301SOL     OW38343   6.745   4.545   7.330 -0.3174 -0.7328 -0.0973
12301SOL    HW138344   6.716   4.630   7.295  1.2554 -0.3340 -0.5065
12301SOL    HW238345   6.772   4.496   7.253 -1.1824 -1.6240  0.1468
12302SOL     OW38346   2.560   5.068  10.928  0.8383 -0.2094  0.7993
12302SOL    HW138347   2.551   4.978  10.960 -0.2289 -0.7569 -0.8926
12302SOL    HW238348   2.550   5.060  10.833 -0.7538  1.8690  0.7323
12303SOL     OW38349   4.069   2.940   4.762 -0.0839  0.2006  0.0347
12303SOL    HW138350   4.033   2.852   4.751 -1.1493  0.6215 -0.0364
12303SOL    HW238351   4.060   2.958   4.856 -2.8603  1.4008 -0.3604
12304SOL     OW38352   1.857   3.778   7.949  0.0126 -0.1473 -0.0153
12304SOL    HW138353   1.917   3.853   7.949  0.1991 -0.2447  2.3261
12304SOL    HW238354   1.885   3.725   7.875  3.5700 -0.7217  1.5652
12305SOL     OW38355   7.889   1.351   1.002  0.3356 -0.8202  0.3837
12305SOL    HW138356   7.964   1.410   0.998  1.0286 -1.7525 -1.3402
12305SOL    HW238357   7.905   1.298   1.080 -0.5196  1.4433  2.2095
12306SOL     OW38358   1.121   6.541   5.860 -0.1190  0.3127  0.0857
12306SOL    HW138359   1.070   6.477   5.909 -0.9086  0.1401 -0.9261
12306SOL    HW238360   1.170   6.489   5.796 -1.1777  0.7166 -1.1073
12307SOL     OW38361   5.264   5.605   3.349  0.5080  0.3665  0.7400
12307SOL    HW138362   5.207   5.533   3.324  3.2082 -0.7046 -3.4222
12307SOL    HW238363   5.209   5.664   3.400 -2.7440 -2.9286  1.4087
12308SOL     OW38364   3.756   2.281   2.866  0.1877 -0.3655 -0.3093
12308SOL    HW138365   3.800   2.196   2.867 -0.5734 -0.7651  0.3813
12308SOL    HW238366   3.732   2.296   2.957 -0.1118  0.3715 -0.5040
12309SOL     OW38367   5.067   1.046   8.114 -0.0132 -0.2078 -0.4215
12309SOL    HW138368   5.109   0.981   8.057 -0.5762 -0.2951 -0.7397
12309SOL    HW238369   5.136   1.072   8.175 -0.0133 -1.7674  0.2914
12310SOL     OW38370   6.413   1.054   4.083 -0.2003 -0.4161  0.2997
12310SOL    HW138371   6.367   1.094   4.009 -0.4465  0.0477  0.6956
12310SOL    HW238372   6.412   1.122   4.151  1.0032 -0.4160  0.3464
12311SOL     OW38373   0.341   0.874   9.685 -0.5505  0.2977  0.3165
12311SOL    HW138374   0.261   0.888   9.736 -0.2698 -1.6866  1.4139
12311SOL    HW238375   0.385   0.802   9.729  1.6501  1.0343 -0.5376
12312SOL     OW38376   7.545   3.598   9.851  0.4072 -0.0263 -0.5474
12312SOL    HW138377   7.455   3.625   9.871  0.5130 -0.5226  0.6669
12312SOL    HW238378   7.564   3.639   9.767 -0.4702  1.2604 -0.1570
12313SOL     OW38379   4.048   7.123   8.827  0.5080 -0.0148 -0.4782
12313SOL    HW138380   4.044   7.097   8.919 -0.4230 -0.1895 -0.5596
12313SOL    HW238381   4.040   7.218   8.829 -2.3716 -0.1779 -0.4934
12314SOL     OW38382   1.840   0.785   6.255 -0.0478  0.4097 -0.2869
12314SOL    HW138383   1.930   0.784   6.288 -1.1572 -2.4470  3.3887
12314SOL    HW238384   1.833   0.704   6.203 -0.9246 -0.4632  1.1299
12315SOL     OW38385   6.097   4.104   9.141 -0.7865 -0.5260  0.0605
12315SOL    HW138386   6.027   4.161   9.172  0.3382  2.4972 -2.4336
12315SOL    HW238387   6.067   4.074   9.055  0.2130 -0.6336 -0.2645
12316SOL     OW38388   3.337   0.051   9.847  0.2519  0.4382 -0.0286
12316SOL    HW138389   3.351  -0.041   9.868  1.9204  0.4531 -0.8731
12316SOL    HW238390   3.331   0.053   9.751  0.0717  1.1969 -0.0109
12317SOL     OW38391   2.535   3.421   9.407 -0.3832 -0.0065  0.0347
12317SOL    HW138392   2.484   3.340   9.402 -1.4906  0.5343  1.6895
12317SOL    HW238393   2.624   3.391   9.429 -0.2170 -0.8818 -1.6943
12318SOL     OW38394   3.711   4.930   0.563  0.3505  0.0628  0.4606
12318SOL    HW138395   3.785   4.870   0.558  0.6508  0.4008  0.7420
12318SOL    HW238396   3.647   4.885   0.618 -0.0113 -0.5973 -0.4953
12319SOL     OW38397   1.532   3.125   5.987 -0.2554  0.5216 -0.0208
12319SOL    HW138398   1.475   3.099   5.914  0.5518 -1.0078 -0.1672
12319SOL    HW238399   1.548   3.218   5.973 -3.0237  1.1475  0.2740
12320SOL     OW38400   3.814   6.492   3.128 -0.6108  0.1912  0.3670
12320SOL    HW138401   3.864   6.512   3.049  1.2898  0.8851  1.6799
12320SOL    HW238402   3.854   6.412   3.162  0.2717  1.2515  1.9205
12321SOL     OW38403   6.924   5.972   0.858  0.5338 -0.2952 -0.1956
12321SOL    HW138404   6.915   6.067   0.857  1.4508 -0.1681  1.1729
12321SOL    HW238405   6.849   5.941   0.909  0.9708 -0.1970  0.5118
12322SOL     OW38406   5.997   0.941   9.272 -0.0900  0.1989  0.4138
12322SOL    HW138407   6.026   0.858   9.309  1.1257  0.0255 -0.8236
12322SOL    HW238408   6.060   0.958   9.201 -1.5724  1.1109 -0.7309
12323SOL     OW38409   4.842   5.413   0.162 -0.0739 -0.0638 -0.0124
12323SOL    HW138410   4.883   5.489   0.120  0.2515  0.0017  0.4160
12323SOL    HW238411   4.916   5.362   0.195 -0.2874 -0.6221 -0.3869
12324SOL     OW38412   4.873   2.905   2.612 -0.1591 -0.8680  0.7375
12324SOL    HW138413   4.812   2.957   2.665  0.7313  0.7045  0.2752
12324SOL    HW238414   4.817   2.848   2.560 -1.2964  0.7532  0.0825
12325SOL     OW38415   0.833   0.107  12.412  0.0898  0.0641  0.0026
12325SOL    HW138416   0.758   0.049  12.402  0.8295 -0.9369  0.1852
12325SOL    HW238417   0.909   0.051  12.397  0.8957  0.5460  2.0541
12326SOL     OW38418   0.482   4.507   0.099  0.5690  0.0900 -0.2669
12326SOL    HW138419   0.423   4.570   0.141  0.8473 -0.0893  0.4009
12326SOL    HW238420   0.425   4.458   0.039  0.3424  0.9333 -0.7503
12327SOL     OW38421   6.845   6.914   9.389  0.2923  0.3017 -0.0971
12327SOL    HW138422   6.753   6.937   9.403  0.3057  0.0908  0.3578
12327SOL    HW238423   6.894   6.975   9.445  0.3232 -0.8786  1.2195
12328SOL     OW38424   2.311   7.254   4.670 -0.8119 -1.0341  0.2340
12328SOL    HW138425   2.290   7.338   4.712 -1.6615 -0.9912 -0.2564
12328SOL    HW238426   2.227   7.223   4.636 -0.2381 -1.3516 -0.9212
12329SOL     OW38427   7.262   6.743   1.147  0.2252  0.4004 -0.2685
12329SOL    HW138428   7.358   6.748   1.149  0.2551 -0.2309  1.3763
12329SOL    HW238429   7.238   6.784   1.064  1.8922  0.9329 -0.5306
12330SOL     OW38430   2.099   3.448   5.503  0.3659 -0.1691  0.2663
12330SOL    HW138431   2.087   3.541   5.521  0.6565 -0.6312  3.5544
12330SOL    HW238432   2.099   3.441   5.408 -1.2272  2.9518 -0.0803
12331SOL     OW38433   4.344   0.218   8.859 -0.0629 -1.0670 -0.3355
12331SOL    HW138434   4.396   0.251   8.932 -0.4368  0.1162 -0.5835
12331SOL    HW238435   4.376   0.267   8.783 -0.1205 -1.8254 -0.8521
12332SOL     OW38436   7.920   2.963   0.034 -0.6128  0.0716 -0.1627
12332SOL    HW138437   7.906   2.869   0.041 -2.0694  0.2679 -0.0760
12332SOL    HW238438   7.843   3.002   0.076  0.7632  1.3160  1.3245
12333SOL     OW38439   1.975   2.571   9.436  0.3481  0.4319 -0.1802
12333SOL    HW138440   1.884   2.600   9.442  0.0132 -0.7720  0.7897
12333SOL    HW238441   1.971   2.487   9.391  1.1585  1.0717 -1.5197
12334SOL     OW38442   1.207   0.870   9.061 -0.0314 -0.6004  0.1495
12334SOL    HW138443   1.171   0.956   9.042 -2.1774 -1.9210 -2.4082
12334SOL    HW238444   1.292   0.869   9.018 -0.3783 -0.0329 -0.5656
12335SOL     OW38445   0.276   4.590   8.223 -0.0066  0.2326 -0.0333
12335SOL    HW138446   0.232   4.536   8.158 -0.3857 -0.7031  0.9758
12335SOL    HW238447   0.210   4.604   8.291  0.8840 -0.2017  0.9346
12336SOL     OW38448   3.050   4.585   3.893 -0.3872 -0.2760 -0.0343
12336SOL    HW138449   3.145   4.583   3.906 -0.5566 -1.2023  1.2551
12336SOL    HW238450   3.038   4.550   3.805  0.4778  0.0104 -0.2803
12337SOL     OW38451   7.161   3.075   1.829 -0.2429  0.4794  0.5878
12337SOL    HW138452   7.202   3.023   1.898 -1.2572 -0.2034  0.7005
12337SOL    HW238453   7.121   3.149   1.875 -0.6109  0.2153  0.7017
12338SOL     OW38454   1.112   4.876   7.755 -0.0940 -0.5610 -0.2044
12338SOL    HW138455   1.052   4.913   7.820  0.4133 -0.7705  0.3994
12338SOL    HW238456   1.063   4.879   7.673 -1.0232 -0.9466  0.3108
12339SOL     OW38457   1.061   5.569   5.210  0.0022 -0.5719  0.5492
12339SOL    HW138458   1.078   5.647   5.157 -0.0046 -1.6980 -1.1848
12339SOL    HW238459   1.101   5.589   5.295  0.9741  0.8863 -0.2023
12340SOL     OW38460   5.104   6.910   0.640  0.1435 -0.1399 -0.3367
12340SOL    HW138461   5.175   6.974   0.641  1.5832 -1.6307 -2.0366
12340SOL    HW238462   5.135   6.839   0.584 -1.0105 -2.8118  2.1409
12341SOL     OW38463   2.045   3.887   6.851  0.0928  0.1610  0.1796
12341SOL    HW138464   2.012   3.797   6.855 -0.5980  0.4029  0.0730
12341SOL    HW238465   2.026   3.916   6.762 -1.1850  0.9498  0.6674
12342SOL     OW38466   2.101   7.838   3.079 -0.7636  0.4608  0.7149
12342SOL    HW138467   2.088   7.835   2.984  0.2143 -0.0750  0.5880
12342SOL    HW238468   2.029   7.893   3.111  0.2342  2.6435 -0.5777
12343SOL     OW38469   2.041   5.040   3.978  0.2686  0.1792  0.2035
12343SOL    HW138470   2.123   5.082   4.005  1.5912 -1.2119 -1.4089
12343SOL    HW238471   2.014   4.990   4.055  0.4274  1.3549  1.0551
12344SOL     OW38472   4.128   1.695   0.037 -0.5041 -0.4855  0.5544
12344SOL    HW138473   4.090   1.645  -0.036  1.3682  0.1382 -0.9178
12344SOL    HW238474   4.076   1.775   0.040 -1.3991 -1.0565  0.7572
12345SOL     OW38475   0.544   6.019   3.679 -0.4742  0.2752  0.1840
12345SOL    HW138476   0.502   5.994   3.761  0.8657 -1.6902  0.3389
12345SOL    HW238477   0.577   5.937   3.643 -1.7503  0.9229 -2.7916
12346SOL     OW38478   5.969   4.668   2.852 -0.0899  0.5549 -0.0731
12346SOL    HW138479   6.052   4.697   2.891  2.1182 -3.1907 -1.4536
12346SOL    HW238480   5.970   4.703   2.764  0.9624 -0.8166 -0.6479
12347SOL     OW38481   0.448   4.840  10.853 -0.3445  0.2740  0.0957
12347SOL    HW138482   0.477   4.832  10.944 -0.6763 -0.2947  0.1524
12347SOL    HW238483   0.384   4.770  10.842 -0.1110  0.1701 -0.6503
12348SOL     OW38484   3.854   0.429   5.502  0.1979 -0.1395 -0.6643
12348SOL    HW138485   3.914   0.503   5.494  0.9414 -0.8682 -2.2793
12348SOL    HW238486   3.891   0.375   5.572  0.6239  0.1374 -0.6779
12349SOL     OW38487   1.186   3.029  10.945 -0.8636  0.0207  0.7357
12349SOL    HW138488   1.101   3.012  10.983 -0.6225 -0.3377  1.1158
12349SOL    HW238489   1.243   3.048  11.020 -0.6523  0.4553  0.4731
12350SOL     OW38490   2.046   6.445   2.870  0.0086  0.2973 -0.4165
12350SOL    HW138491   2.125   6.437   2.816  0.2143  0.2563 -0.1136
12350SOL    HW238492   2.065   6.392   2.948 -0.9154 -0.9554 -1.0154
12351SOL     OW38493   1.364   5.322  11.119  0.1714  0.0352  0.4803
12351SOL    HW138494   1.309   5.386  11.165  0.0844  0.0588  0.3461
12351SOL    HW238495   1.374   5.250  11.180  0.7440  0.4228  0.8509
12352SOL     OW38496   3.081   3.396   7.103  0.0975 -0.2462  0.5107
12352SOL    HW138497   3.156   3.441   7.140  0.6027 -0.4836 -0.1901
12352SOL    HW238498   3.114   3.357   7.022 -1.8906  3.9531 -2.7391
12353SOL     OW38499   7.046   3.826   7.392 -0.2072  0.0401  0.1590
12353SOL    HW138500   7.120   3.874   7.354  0.0150 -0.0573  0.4604
12353SOL    HW238501   6.973   3.844   7.333 -0.0796  0.5981  0.1637
12354SOL     OW38502   3.450   2.506   5.417  0.1963  0.3063  0.3119
12354SOL    HW138503   3.431   2.535   5.506  0.0501 -1.4146  0.8837
12354SOL    HW238504   3.396   2.427   5.406 -0.3189  0.8734 -1.5575
12355SOL     OW38505   7.592   1.567   2.034 -0.3620  0.2516 -0.2445
12355SOL    HW138506   7.662   1.567   2.100  0.4243 -0.2768 -1.0467
12355SOL    HW238507   7.586   1.659   2.006  1.4552  0.0251 -1.5982
12356SOL     OW38508   2.335   1.927   9.278  0.3736  0.8050  0.5053
12356SOL    HW138509   2.417   1.970   9.304  1.0857 -0.4173  0.3667
12356SOL    HW238510   2.348   1.835   9.304 -0.0176  0.1243 -1.5846
12357SOL     OW38511   2.109   1.591   9.026 -0.0860 -0.2347 -0.2610
12357SOL    HW138512   2.122   1.587   9.121 -0.0840 -1.6905 -0.2993
12357SOL    HW238513   2.180   1.646   8.994  0.3424 -0.3229  0.5110
12358SOL     OW38514   4.967   2.432  11.371  0.0477 -0.1134  0.2024
12358SOL    HW138515   5.041   2.402  11.424 -0.5731  0.1454  1.2509
12358SOL    HW238516   4.904   2.360  11.374  0.5208 -0.6287 -1.2815
12359SOL     OW38517   7.293   5.799   5.503 -0.2850 -0.0169  0.0462
12359SOL    HW138518   7.310   5.881   5.549  2.8704 -1.8258  2.4824
12359SOL    HW238519   7.282   5.734   5.572 -0.0550 -2.1110 -1.7729
12360SOL     OW38520   0.454   0.240   1.351  0.3802  0.1668  0.7013
12360SOL    HW138521   0.526   0.282   1.398  1.0677  2.1336 -1.8630
12360SOL    HW238522   0.436   0.299   1.277 -2.7294 -1.1317  0.2515
12361SOL     OW38523   2.637   1.156   1.091 -0.1808  0.2859 -0.2170
12361SOL    HW138524   2.677   1.235   1.128  0.3748 -0.4768  0.8355
12361SOL    HW238525   2.628   1.096   1.165  0.5786 -1.1352 -1.2271
12362SOL     OW38526   3.178   2.320  10.204  0.1917 -0.1629  0.0814
12362SOL    HW138527   3.211   2.408  10.223  1.6851 -0.6449 -0.1140
12362SOL    HW238528   3.164   2.319  10.109  0.0766 -0.1003  0.0976
12363SOL     OW38529   0.724   5.251   4.959  0.2889  0.3139  0.1054
12363SOL    HW138530   0.771   5.316   5.011 -0.4529 -0.4034  1.7593
12363SOL    HW238531   0.793   5.199   4.917  0.9991 -0.1562  1.7644
12364SOL     OW38532   3.938   5.006   3.674 -0.1969  0.2756 -0.2076
12364SOL    HW138533   4.016   4.952   3.686  0.9036  1.8516  0.0429
12364SOL    HW238534   3.879   4.981   3.746  0.1860 -0.7258 -0.2322
12365SOL     OW38535   3.548   0.642   0.013  0.3916  0.1597 -0.7728
12365SOL    HW138536   3.523   0.629   0.104  0.7021  0.3392 -0.6625
12365SOL    HW238537   3.600   0.565  -0.009 -0.4392 -0.3343 -1.0742
12366SOL     OW38538   5.175   3.834  11.515 -0.0155  0.0492 -0.2535
12366SOL    HW138539   5.217   3.766  11.567 -0.1612 -1.1482 -1.6503
12366SOL    HW238540   5.240   3.857  11.449 -0.0419  1.1527  0.0883
12367SOL     OW38541   0.712   5.747   1.777  0.2306  0.7030  0.1700
12367SOL    HW138542   0.688   5.820   1.720  2.0532  1.7370  0.6673
12367SOL    HW238543   0.781   5.701   1.729 -0.5527 -0.4226  0.0871
12368SOL     OW38544   1.277   1.379  11.787  0.1362  0.5027  0.4385
12368SOL    HW138545   1.372   1.382  11.776  0.2507  1.8248  1.4773
12368SOL    HW238546   1.250   1.299  11.742  1.8740 -0.5432  1.1539
12369SOL     OW38547   6.145   2.173  10.156 -0.1458  0.2089  0.4151
12369SOL    HW138548   6.101   2.092  10.182 -0.5375  0.8015  1.6957
12369SOL    HW238549   6.077   2.240  10.162  1.0823  1.4010  3.7297
12370SOL     OW38550   7.869   5.138  12.129 -0.3007  0.4030 -0.1679
12370SOL    HW138551   7.850   5.092  12.211  0.0573  0.9886  0.2465
12370SOL    HW238552   7.799   5.202  12.120  0.9607  2.0297  0.9638
12371SOL     OW38553   0.013   0.659   0.521 -0.4643 -0.0150  0.5716
12371SOL    HW138554   0.008   0.747   0.484  1.7470 -0.4404 -0.9506
12371SOL    HW238555   0.009   0.672   0.616  0.5751  1.7996  0.4103
12372SOL     OW38556   3.503   6.812  10.908 -0.0732  0.4107 -0.2473
12372SOL    HW138557   3.583   6.825  10.857 -0.1152  0.8292 -0.2092
12372SOL    HW238558   3.513   6.868  10.984 -0.1581  0.0371  0.0428
12373SOL     OW38559   7.920   0.628   0.811 -0.4284 -0.6678  0.6407
12373SOL    HW138560   8.002   0.641   0.858 -1.6615 -1.4059  3.1902
12373SOL    HW238561   7.863   0.697   0.843 -0.7053  0.1848 -1.5201
12374SOL     OW38562   7.633   4.776   4.388  0.0490 -0.2765  0.4530
12374SOL    HW138563   7.547   4.748   4.358  0.9895 -1.2165 -1.5750
12374SOL    HW238564   7.627   4.871   4.392 -1.0402 -0.3210  0.2166
12375SOL     OW38565   0.757   1.700   0.284  0.1123 -0.4371  0.3527
12375SOL    HW138566   0.667   1.683   0.311  0.0486 -0.5168  0.0944
12375SOL    HW238567   0.792   1.759   0.352  0.0522 -0.8714  0.7635
12376SOL     OW38568   6.514   7.903   9.150 -0.6377  0.3432  0.0527
12376SOL    HW138569   6.499   7.831   9.211  1.3785 -1.3158 -1.2797
12376SOL    HW238570   6.584   7.954   9.190  1.2051 -1.1642 -1.1005
12377SOL     OW38571   0.361   4.032  11.380  0.7467 -0.5875  0.5050
12377SOL    HW138572   0.346   4.048  11.473  0.1760 -0.3587  0.3784
12377SOL    HW238573   0.402   4.112  11.348  2.4249 -1.2661  0.8797
12378SOL     OW38574   6.545   3.613  11.976  0.0666 -0.4950  0.6387
12378SOL    HW138575   6.551   3.522  11.946  0.3203 -0.3748  0.3127
12378SOL    HW238576   6.504   3.659  11.903  1.1945 -0.0932  0.2342
12379SOL     OW38577   4.983   7.370   6.581 -0.3516  0.5662 -0.0195
12379SOL    HW138578   4.932   7.369   6.662  0.1392  1.0561  0.3051
12379SOL    HW238579   4.968   7.284   6.542  1.0475 -0.5007  1.6436
12380SOL     OW38580   4.446   1.637   0.258 -0.3766 -0.2229 -0.1273
12380SOL    HW138581   4.478   1.725   0.278  0.3395 -0.4044 -0.4139
12380SOL    HW238582   4.434   1.636   0.163  0.3392 -0.6451 -0.2289
12381SOL     OW38583   0.274   5.002   5.215  0.2447 -0.0321  0.3226
12381SOL    HW138584   0.196   5.043   5.178  0.1852 -0.3657  0.0688
12381SOL    HW238585   0.328   4.980   5.139  0.1063 -0.7587  0.4215
12382SOL     OW38586   0.898   4.770   3.873  0.8157 -0.2018  0.2418
12382SOL    HW138587   0.979   4.814   3.901  2.2683 -1.1719 -2.1094
12382SOL    HW238588   0.913   4.749   3.781 -0.5475 -3.8175  0.6832
12383SOL     OW38589   5.763   7.163   5.261  0.0010  0.7850 -0.1956
12383SOL    HW138590   5.704   7.164   5.336  0.6757 -2.0875  0.5138
12383SOL    HW238591   5.841   7.208   5.291 -0.4174  1.2960  0.1538
12384SOL     OW38592   1.776   0.272   0.945 -0.2285  0.0609 -0.2990
12384SOL    HW138593   1.798   0.291   1.036  0.1584  1.0954 -0.5955
12384SOL    HW238594   1.854   0.227   0.910 -0.0254  0.4460 -0.3499
12385SOL     OW38595   0.883   6.931  10.980 -0.0291  0.2410  0.1096
12385SOL    HW138596   0.899   6.848  10.936  2.0024  0.7109 -0.1637
12385SOL    HW238597   0.826   6.980  10.921 -0.1452 -0.4565 -0.3593
12386SOL     OW38598   4.790   7.769   1.879  0.5173 -0.6389  0.2566
12386SOL    HW138599   4.743   7.852   1.876 -0.0747 -0.9914 -1.7157
12386SOL    HW238600   4.721   7.703   1.894  0.9872 -0.8019  1.8745
12387SOL     OW38601   6.727   1.292   8.111  0.0757  0.7335 -0.0772
12387SOL    HW138602   6.809   1.342   8.112  0.2858  0.4557  2.1995
12387SOL    HW238603   6.659   1.359   8.108  0.3660  1.2449  2.4341
12388SOL     OW38604   4.214   2.113   1.338  0.1177  0.5521  0.7457
12388SOL    HW138605   4.246   2.197   1.372 -0.9786  2.0294 -1.6088
12388SOL    HW238606   4.267   2.097   1.260 -0.7137 -0.1613  0.3078
12389SOL     OW38607   6.380   0.035   8.370 -0.3343 -0.6103  0.0944
12389SOL    HW138608   6.290   0.014   8.396 -0.7962 -0.6270 -1.4643
12389SOL    HW238609   6.411  -0.043   8.326 -0.1244 -0.0321 -0.8001
12390SOL     OW38610   4.556   1.850   8.674  0.3801  0.2756  0.5548
12390SOL    HW138611   4.568   1.925   8.616  1.2197 -0.6899 -0.5798
12390SOL    HW238612   4.557   1.774   8.615 -0.4891 -0.6244  1.6637
12391SOL     OW38613   0.046   4.346   3.917  0.0611  0.1223 -0.2911
12391SOL    HW138614   0.084   4.394   3.843 -0.8124  0.7856 -0.3225
12391SOL    HW238615   0.113   4.348   3.985  1.0301 -0.8061 -1.1684
12392SOL     OW38616   2.270   2.278  11.746 -0.4736 -0.2114  0.5237
12392SOL    HW138617   2.187   2.304  11.786  0.0105  0.6214  1.0281
12392SOL    HW238618   2.255   2.284  11.652 -0.8422  0.3952  0.6194
12393SOL     OW38619   5.830   4.140  10.584 -0.4300  0.4228 -0.2629
12393SOL    HW138620   5.736   4.151  10.573 -0.3267 -0.6213 -2.7990
12393SOL    HW238621   5.840   4.054  10.626 -0.5828  0.6346  0.2189
12394SOL     OW38622   3.704   7.759   4.585  0.2832 -0.2835  0.6306
12394SOL    HW138623   3.758   7.806   4.649  0.2790 -0.7805  1.0063
12394SOL    HW238624   3.730   7.794   4.500 -0.0984  0.7844  0.9342
12395SOL     OW38625   0.972   3.234   7.877 -0.1443  0.1947 -0.6232
12395SOL    HW138626   1.027   3.191   7.942 -1.7405 -0.7362  0.1724
12395SOL    HW238627   0.998   3.326   7.880  1.7031 -0.3018 -0.6599
12396SOL     OW38628   6.792   6.062   6.553  0.1762 -0.0307  0.2223
12396SOL    HW138629   6.785   6.018   6.638  0.8370 -0.1631  0.2148
12396SOL    HW238630   6.886   6.056   6.531  0.4339  2.0946  0.6057
12397SOL     OW38631   2.126   7.659   9.716 -0.5505 -0.3046 -0.3236
12397SOL    HW138632   2.160   7.717   9.784  0.4983 -0.9899 -0.2257
12397SOL    HW238633   2.101   7.579   9.762 -2.7092  0.3064 -0.3488
12398SOL     OW38634   4.583   7.529   0.459 -0.3603 -0.4736  0.0307
12398SOL    HW138635   4.518   7.461   0.476  0.4852 -0.7283  2.6560
12398SOL    HW238636   4.643   7.488   0.396 -1.4306 -1.0657 -0.6420
12399SOL     OW38637   6.983   5.607   2.381  0.4431 -0.3529 -0.1851
12399SOL    HW138638   6.922   5.606   2.455  0.2383  1.2727 -0.2870
12399SOL    HW238639   7.046   5.676   2.403  0.4860  0.0252 -1.4402
12400SOL     OW38640   4.163   6.170  10.555 -0.1983 -0.0447 -0.0489
12400SOL    HW138641   4.102   6.235  10.519 -0.9833 -0.1178  1.1134
12400SOL    HW238642   4.230   6.222  10.598 -1.6445  0.0618  2.2406
12401SOL     OW38643   5.438   7.050   2.081 -0.0874 -1.2188  0.1013
12401SOL    HW138644   5.453   6.975   2.024  1.7937 -1.0154  0.2483
12401SOL    HW238645   5.509   7.111   2.060 -1.2055  0.2611  0.4279
12402SOL     OW38646   5.510   2.811   3.834  0.7249  0.1953  0.6947
12402SOL    HW138647   5.440   2.747   3.848  0.6930  0.5050  2.0597
12402SOL    HW238648   5.590   2.766   3.862  0.8710  0.3335  0.5027
12403SOL     OW38649   5.520   3.761  11.499 -0.3293 -0.2002  0.2816
12403SOL    HW138650   5.600   3.725  11.537 -0.9261  0.6576  2.4727
12403SOL    HW238651   5.506   3.710  11.419  1.4373 -1.5358  0.7750
12404SOL     OW38652   1.671   0.484  10.743  0.5697  0.0708 -0.1824
12404SOL    HW138653   1.738   0.420  10.768 -0.6698 -1.4056 -0.4842
12404SOL    HW238654   1.642   0.455  10.657 -1.9394 -0.6148  0.8244
12405SOL     OW38655   4.538   2.918   0.005 -0.0366 -0.3836 -0.0061
12405SOL    HW138656   4.455   2.889   0.041 -1.8046  2.0961 -1.6826
12405SOL    HW238657   4.547   2.870  -0.077 -1.5075  1.4858 -1.3607
12406SOL     OW38658   3.216   4.356   4.261 -0.3224  0.2948  0.2631
12406SOL    HW138659   3.244   4.443   4.233  0.4387  0.1252  0.4712
12406SOL    HW238660   3.276   4.334   4.332  0.7970 -1.2037 -1.0558
12407SOL     OW38661   4.551   5.069   0.754 -0.2794 -0.7403 -0.2027
12407SOL    HW138662   4.642   5.095   0.766 -0.0762 -1.1093 -0.9491
12407SOL    HW238663   4.534   5.080   0.661 -1.2511  0.1257  0.0402
12408SOL     OW38664   1.632   6.544   8.692  0.0798  0.5645  0.2536
12408SOL    HW138665   1.625   6.457   8.653 -0.2859  0.2964  0.9139
12408SOL    HW238666   1.573   6.542   8.767  1.0555  0.9524  1.0513
12409SOL     OW38667   4.730   4.310   1.079 -0.2145 -0.5616  0.6060
12409SOL    HW138668   4.729   4.363   0.999 -0.5400 -1.5574 -0.0656
12409SOL    HW238669   4.700   4.223   1.051 -1.6698 -0.5779  2.0532
12410SOL     OW38670   6.263   1.324   2.483 -0.6756  0.0811 -0.0203
12410SOL    HW138671   6.257   1.322   2.578 -1.0365 -1.0814 -0.0517
12410SOL    HW238672   6.251   1.416   2.460 -0.1387  0.4413  1.0764
12411SOL     OW38673   2.551   6.842   9.113 -0.1501 -0.0832  0.2943
12411SOL    HW138674   2.580   6.836   9.204  0.8754 -1.3406 -0.0859
12411SOL    HW238675   2.630   6.828   9.061 -0.8221  0.0036 -0.7919
12412SOL     OW38676   7.822   1.014   0.087 -0.4128 -0.1081  0.2812
12412SOL    HW138677   7.901   1.058   0.056 -0.4279  0.1774  0.6394
12412SOL    HW238678   7.788   1.071   0.155 -0.1015 -0.9819  1.1841
12413SOL     OW38679   2.070   2.021  10.621 -0.0691  0.5411 -0.0133
12413SOL    HW138680   2.091   2.099  10.674 -0.1965  0.4257  0.2116
12413SOL    HW238681   2.030   2.056  10.542 -1.2910  0.6698  0.6258
12414SOL     OW38682   4.885   6.111   5.164  0.1082  0.0386  0.0471
12414SOL    HW138683   4.848   6.062   5.090  0.3991 -1.4844  0.8624
12414SOL    HW238684   4.980   6.096   5.157  0.0797 -0.7462  1.1262
12415SOL     OW38685   1.785   3.388   0.761  0.6546 -0.2416  0.3194
12415SOL    HW138686   1.808   3.392   0.668 -2.0752 -0.7692 -0.4870
12415SOL    HW238687   1.796   3.477   0.793  0.1026  0.3059 -0.9688
12416SOL     OW38688   5.202   4.016   4.528  0.4673  0.1729 -0.1921
12416SOL    HW138689   5.163   4.102   4.540  0.4130  0.3021 -1.2144
12416SOL    HW238690   5.176   3.990   4.440  1.0943 -0.5711 -0.1712
12417SOL     OW38691   4.186   5.580   2.847 -0.1723  0.3231 -0.2547
12417SOL    HW138692   4.226   5.576   2.934  0.1109  0.0713 -0.3941
12417SOL    HW238693   4.194   5.491   2.813 -0.2738  0.4220 -0.5406
12418SOL     OW38694   7.220   1.569   2.687  0.2589 -0.6830 -0.2402
12418SOL    HW138695   7.165   1.600   2.615  1.2924  2.6496  0.2326
12418SOL    HW238696   7.309   1.571   2.652  0.5398 -1.4465  0.4042
12419SOL     OW38697   1.526   3.716  10.790 -0.1750 -0.3494  0.2246
12419SOL    HW138698   1.468   3.792  10.800 -1.2501 -1.0520 -0.4504
12419SOL    HW238699   1.524   3.697  10.696  1.1183 -0.4298  0.1943
12420SOL     OW38700   1.731   5.145   5.939  0.0770  0.2398  0.0768
12420SOL    HW138701   1.752   5.069   5.994 -0.9097 -0.6569 -0.7284
12420SOL    HW238702   1.643   5.171   5.968  0.6844  1.5220  0.8108
12421SOL     OW38703   4.457   1.908   5.792  0.4285 -0.1791 -0.3951
12421SOL    HW138704   4.468   1.859   5.710 -0.0033 -1.2535  0.1769
12421SOL    HW238705   4.371   1.881   5.825  0.2441  0.8603  0.0165
12422SOL     OW38706   5.388   2.251   7.732  0.2020 -0.1551 -0.2530
12422SOL    HW138707   5.408   2.253   7.825  0.4363  1.2560 -0.3166
12422SOL    HW238708   5.394   2.342   7.704 -0.2631 -0.5064 -1.5662
12423SOL     OW38709   7.597   0.066  12.419 -0.5856 -0.0469 -0.1670
12423SOL    HW138710   7.687   0.035  12.406 -0.6178  0.2326 -1.0887
12423SOL    HW238711   7.546   0.018  12.353 -0.8249  1.0875 -0.8233
12424SOL     OW38712   6.173   6.266   9.561 -0.1643  0.3090 -0.0653
12424SOL    HW138713   6.172   6.237   9.652  0.4847  0.1462 -0.1086
12424SOL    HW238714   6.259   6.242   9.528 -0.6398 -0.2904 -0.9418
12425SOL     OW38715   4.451   4.307   9.570  0.1007  0.4838  0.4272
12425SOL    HW138716   4.405   4.224   9.587 -1.7352  1.6395  1.3714
12425SOL    HW238717   4.500   4.290   9.489 -0.7789 -1.3086  0.2092
12426SOL     OW38718   6.928   4.148  11.518 -0.5284  0.1253 -0.1149
12426SOL    HW138719   6.856   4.195  11.560 -1.9936 -0.4906 -1.7985
12426SOL    HW238720   6.999   4.152  11.581 -2.2428  0.1710  1.9432
12427SOL     OW38721   2.577   4.829   9.567 -0.3593  0.1775  0.2448
12427SOL    HW138722   2.570   4.881   9.487 -1.7710 -0.9148 -0.3671
12427SOL    HW238723   2.671   4.812   9.576  0.0614  2.1354  0.0458
12428SOL     OW38724   2.637   7.626   8.317  0.1703 -0.3072  0.2828
12428SOL    HW138725   2.550   7.666   8.319  0.3105  0.3217 -2.1765
12428SOL    HW238726   2.621   7.532   8.309 -0.3513 -0.1228 -1.1462
12429SOL     OW38727   3.663   7.953   8.446  0.3264 -0.2459 -0.1659
12429SOL    HW138728   3.750   7.916   8.433  0.3419 -0.1160 -0.4401
12429SOL    HW238729   3.657   7.969   8.540 -0.0081 -1.7659  0.1059
12430SOL     OW38730   2.366   5.366   0.742  0.0310 -0.0153  0.8046
12430SOL    HW138731   2.397   5.453   0.715 -1.1109  0.4022  0.7969
12430SOL    HW238732   2.343   5.377   0.834 -2.4469  0.3861  0.1982
12431SOL     OW38733   2.871   6.452   0.479 -0.3113  0.1467 -0.3312
12431SOL    HW138734   2.861   6.536   0.436 -1.6928 -0.3171 -0.9778
12431SOL    HW238735   2.839   6.388   0.416  1.7423 -1.0033 -0.2910
12432SOL     OW38736   6.840   7.649   0.322  0.2733 -0.4928 -0.0565
12432SOL    HW138737   6.832   7.564   0.365 -1.7629 -0.2798  0.0638
12432SOL    HW238738   6.876   7.630   0.236  3.2762 -1.0590  1.1808
12433SOL     OW38739   1.863   2.143   2.161  0.2755  0.3866 -0.7729
12433SOL    HW138740   1.818   2.066   2.196  1.4235  0.0251 -0.0647
12433SOL    HW238741   1.792   2.206   2.145 -0.4408  0.1076  1.0019
12434SOL     OW38742   7.326   6.574   2.378 -0.0656 -0.2934  0.6569
12434SOL    HW138743   7.249   6.612   2.420 -0.7323 -0.2822 -0.5075
12434SOL    HW238744   7.390   6.565   2.448 -1.5256 -1.3901  1.9199
12435SOL     OW38745   6.897   5.241   1.514  0.3603  0.0453 -0.7350
12435SOL    HW138746   6.821   5.219   1.460 -1.3464  1.4923  0.9198
12435SOL    HW238747   6.908   5.335   1.504  0.1104  0.3231  1.1983
12436SOL     OW38748   0.547   3.223   9.454 -0.1585 -0.2727  0.6436
12436SOL    HW138749   0.561   3.186   9.542 -0.2315  0.1254  0.8233
12436SOL    HW238750   0.636   3.235   9.419 -0.1074  0.1154  0.8942
12437SOL     OW38751   4.946   1.243   4.897  0.9070 -0.0016 -0.0900
12437SOL    HW138752   4.857   1.224   4.866 -0.0079  0.0534  2.2847
12437SOL    HW238753   4.933   1.295   4.975  2.9919 -1.1565  1.1118
12438SOL     OW38754   5.178   0.882   5.674 -0.7425 -0.6014  0.0071
12438SOL    HW138755   5.089   0.850   5.660 -0.2677 -2.4757  1.0903
12438SOL    HW238756   5.232   0.828   5.617  0.0249 -1.4955  1.5336
12439SOL     OW38757   5.117   0.131   8.655 -0.4119 -0.3312 -0.3762
12439SOL    HW138758   5.147   0.157   8.568  1.2684 -1.9936 -0.3587
12439SOL    HW238759   5.022   0.144   8.652 -0.1131  2.2983 -1.4675
12440SOL     OW38760   0.521   1.731   0.385  0.5653 -0.1011 -0.1592
12440SOL    HW138761   0.486   1.701   0.469 -0.7855 -1.0516 -1.0270
12440SOL    HW238762   0.444   1.751   0.332  1.3404 -0.9757 -1.6848
12441SOL     OW38763   2.718   5.317   8.950 -0.1937  0.3392  0.4341
12441SOL    HW138764   2.726   5.412   8.961  1.1401  0.4662 -1.1642
12441SOL    HW238765   2.656   5.290   9.018  1.9931  1.8523  3.2901
12442SOL     OW38766   2.505   0.793  11.944  0.4887  1.0859 -0.3048
12442SOL    HW138767   2.507   0.802  11.849  1.0759 -0.6446 -0.4815
12442SOL    HW238768   2.445   0.720  11.960  0.4735  1.3007  0.6546
12443SOL     OW38769   7.924   5.596  10.590 -0.0964 -0.5475  0.1649
12443SOL    HW138770   7.867   5.665  10.557 -0.7096 -1.2378 -0.2550
12443SOL    HW238771   8.009   5.615  10.551 -1.0938 -2.1261 -3.1088
12444SOL     OW38772   2.424   5.545   7.337  0.3945  0.4962 -0.7271
12444SOL    HW138773   2.396   5.577   7.422 -0.3594  0.3143 -0.9030
12444SOL    HW238774   2.502   5.597   7.315 -0.2040  1.4742 -0.5435
12445SOL     OW38775   5.058   7.470   6.115 -0.0363  0.0916  0.3770
12445SOL    HW138776   5.119   7.405   6.149  0.9868  0.3647 -0.8548
12445SOL    HW238777   5.017   7.427   6.040  0.8101  0.8935 -0.5887
12446SOL     OW38778   5.643   4.484   4.345 -0.5167  0.1562  0.2043
12446SOL    HW138779   5.715   4.428   4.317 -0.5165  0.5571 -0.6118
12446SOL    HW238780   5.580   4.481   4.273 -0.6980  0.8836  0.3253
12447SOL     OW38781   7.102   6.278   6.848  0.2574 -0.4632 -0.0261
12447SOL    HW138782   7.118   6.221   6.773  0.3016 -0.5215  0.0280
12447SOL    HW238783   7.184   6.325   6.861 -0.0118  0.1684 -0.5417
12448SOL     OW38784   4.441   3.929   9.920  0.7777 -0.2947  0.0918
12448SOL    HW138785   4.426   4.018   9.887  3.7849 -0.6956 -2.8315
12448SOL    HW238786   4.517   3.937   9.977  0.4441 -0.9079  0.6476
12449SOL     OW38787   7.044   3.569   5.101 -0.1257 -0.1675  0.4778
12449SOL    HW138788   7.003   3.490   5.135  0.6948 -1.1276 -0.6862
12449SOL    HW238789   7.026   3.636   5.167 -2.9651 -0.6832  0.3438
12450SOL     OW38790   6.506   2.812  11.077  0.1072 -0.0202  0.0888
12450SOL    HW138791   6.436   2.874  11.054  0.3863  0.6920  1.1122
12450SOL    HW238792   6.505   2.748  11.006 -3.0006 -1.2687  1.0954
12451SOL     OW38793   6.447   3.214   5.989  0.0063  0.3282  0.2894
12451SOL    HW138794   6.492   3.298   5.998 -1.6268  1.5724 -2.1566
12451SOL    HW238795   6.361   3.228   6.027 -0.1849 -0.3573  0.1326
12452SOL     OW38796   4.966   7.723   6.128 -0.3927  0.4320 -0.5572
12452SOL    HW138797   4.994   7.632   6.125 -0.9367  0.2872 -1.7274
12452SOL    HW238798   4.874   7.721   6.101 -0.6962  1.2156  0.3714
12453SOL     OW38799   0.833   3.765   6.653  0.0386 -0.0214 -0.3428
12453SOL    HW138800   0.823   3.843   6.598 -1.2476 -0.6935 -1.1032
12453SOL    HW238801   0.744   3.747   6.686  0.5484 -0.4132  0.8974
12454SOL     OW38802   6.172   5.856   7.160  0.6851 -0.3802 -0.0281
12454SOL    HW138803   6.188   5.931   7.217  0.3617 -0.2915 -0.0538
12454SOL    HW238804   6.152   5.784   7.220 -2.7579  0.4030 -0.0449
12455SOL     OW38805   5.633   0.073   9.252  0.0091 -0.3470 -0.1481
12455SOL    HW138806   5.541   0.048   9.252 -0.2748  0.6373  0.4459
12455SOL    HW238807   5.681  -0.010   9.247 -0.9024 -0.8963  0.0616
12456SOL     OW38808   5.224   4.318   3.087  0.6758  0.0940  0.0093
12456SOL    HW138809   5.222   4.241   3.030 -1.6618 -1.0979  1.5618
12456SOL    HW238810   5.140   4.361   3.072 -0.4648 -0.7802  3.0789
12457SOL     OW38811   0.380   3.421  10.212 -0.5132  0.0290  0.1560
12457SOL    HW138812   0.400   3.342  10.262 -0.8534  0.4959  1.0527
12457SOL    HW238813   0.311   3.465  10.262  0.3338  1.3766  0.2021
12458SOL     OW38814   7.180   2.721   9.014  0.2343  0.2149  0.1359
12458SOL    HW138815   7.138   2.729   8.928  0.5959  0.4168 -0.0225
12458SOL    HW238816   7.212   2.810   9.033  1.6065 -0.1745 -0.2655
12459SOL     OW38817   6.514   0.196   9.577  0.5451 -0.1533 -0.0680
12459SOL    HW138818   6.453   0.209   9.505  1.2615  1.1761 -0.4553
12459SOL    HW238819   6.509   0.102   9.596 -0.0550 -0.4238 -1.4726
12460SOL     OW38820   3.136   6.503   8.396 -0.2662  0.3058  0.2603
12460SOL    HW138821   3.070   6.511   8.464 -0.2923  0.5551  0.2040
12460SOL    HW238822   3.196   6.575   8.411  0.8823 -0.8099  1.2731
12461SOL     OW38823   0.515   2.793   5.382  0.0399 -0.1349  0.1387
12461SOL    HW138824   0.581   2.737   5.422 -1.0687  0.4023  2.9261
12461SOL    HW238825   0.434   2.742   5.386  0.1138 -0.7449 -3.1365
12462SOL     OW38826   0.075   2.361   2.949  0.6992 -0.2233  0.1891
12462SOL    HW138827   0.025   2.335   2.872  0.7565 -2.4893  0.8286
12462SOL    HW238828   0.008   2.379   3.016  0.6696  0.9758 -0.1470
12463SOL     OW38829   6.175   0.443   0.135 -0.1522 -0.3292  0.2623
12463SOL    HW138830   6.189   0.352   0.163  1.4173  0.0923  0.9618
12463SOL    HW238831   6.089   0.466   0.170 -0.2830 -1.3441  0.6437
12464SOL     OW38832   6.852   6.770   4.425  0.2559 -0.1639 -0.3326
12464SOL    HW138833   6.761   6.754   4.402  0.6190  0.0671 -2.0098
12464SOL    HW238834   6.853   6.769   4.521 -1.3030 -1.2377 -0.3020
12465SOL     OW38835   7.165   5.960  11.811  0.8382 -0.6842 -0.3751
12465SOL    HW138836   7.182   6.011  11.889 -1.0157  1.2255 -1.1144
12465SOL    HW238837   7.151   6.025  11.742 -2.3038 -2.0882 -1.2407
12466SOL     OW38838   3.800   6.365   3.564  0.3211 -0.7406  0.0373
12466SOL    HW138839   3.774   6.346   3.654 -0.6291 -0.0378 -0.0793
12466SOL    HW238840   3.849   6.287   3.537  2.1505 -0.2614  1.7286
12467SOL     OW38841   1.905   1.345   5.266 -0.3062 -0.1596  0.0566
12467SOL    HW138842   1.964   1.363   5.339  0.1541 -0.2414 -0.2974
12467SOL    HW238843   1.941   1.393   5.192 -0.8847  0.0862 -0.0744
12468SOL     OW38844   1.828   4.300   9.455  0.0278 -0.6571  0.0763
12468SOL    HW138845   1.756   4.257   9.409 -0.7649 -0.5596  1.1808
12468SOL    HW238846   1.800   4.301   9.546  1.7032 -1.1377  0.6220
12469SOL     OW38847   7.090   5.399   8.606 -0.2787 -0.4307  0.0287
12469SOL    HW138848   7.134   5.443   8.533 -3.4067  0.3617 -1.5413
12469SOL    HW238849   7.063   5.314   8.570 -3.9553  0.8786 -0.7468
12470SOL     OW38850   7.819   7.290  10.721 -0.1293  0.0555  0.1381
12470SOL    HW138851   7.866   7.241  10.653 -0.4232  0.6497 -0.4949
12470SOL    HW238852   7.805   7.225  10.791 -0.8421 -0.8821 -0.8407
12471SOL     OW38853   2.784   6.586   8.121 -0.0445  0.2767  0.0048
12471SOL    HW138854   2.847   6.550   8.058 -0.6477 -0.3630 -0.2503
12471SOL    HW238855   2.825   6.666   8.153  0.6538  0.1580 -0.5636
12472SOL     OW38856   1.851   7.546   4.565  0.5157  0.4561  0.2818
12472SOL    HW138857   1.847   7.582   4.476  0.7566  0.9400  0.4579
12472SOL    HW238858   1.851   7.624   4.622 -4.4398  0.2613  0.9955
12473SOL     OW38859   1.150   0.688   8.111 -0.4635  0.4679  0.0403
12473SOL    HW138860   1.073   0.719   8.064 -0.2668 -1.3950 -1.6703
12473SOL    HW238861   1.221   0.694   8.048  0.2417 -0.2440  0.7427
12474SOL     OW38862   3.760   2.123   3.786 -0.9385 -0.8461  0.2078
12474SOL    HW138863   3.808   2.180   3.846 -1.9227  0.7112 -0.4338
12474SOL    HW238864   3.828   2.069   3.745 -0.0234 -0.4461  1.1640
12475SOL     OW38865   3.527   2.107   5.461 -0.8244  0.2719 -0.0477
12475SOL    HW138866   3.519   2.014   5.479  0.4282  0.4486  1.6368
12475SOL    HW238867   3.444   2.145   5.491 -0.2238  0.0461  2.0078
12476SOL     OW38868   1.626   5.366   2.765 -0.3276 -0.0669 -0.2948
12476SOL    HW138869   1.594   5.411   2.686 -0.5637 -1.0419 -0.7731
12476SOL    HW238870   1.668   5.434   2.816 -0.4245  0.6430 -1.1363
12477SOL     OW38871   1.220   3.662   3.758  0.4281 -0.0480 -0.4205
12477SOL    HW138872   1.282   3.627   3.694  1.3969  0.1757  0.3744
12477SOL    HW238873   1.273   3.716   3.816 -0.7521  1.3289 -0.5675
12478SOL     OW38874   2.036   3.724   2.252  0.8138 -0.3201 -0.0647
12478SOL    HW138875   1.959   3.767   2.290 -0.5840 -2.2725 -0.4955
12478SOL    HW238876   2.109   3.780   2.277 -0.3540  0.1073  2.9479
12479SOL     OW38877   4.794   4.953   6.419  0.0135 -0.2867 -0.2129
12479SOL    HW138878   4.809   4.860   6.401  1.0654  0.0950 -1.4609
12479SOL    HW238879   4.866   4.978   6.477 -0.2649 -0.2494  0.1166
12480SOL     OW38880   1.639   6.957   7.746  0.2549  0.1097  0.2636
12480SOL    HW138881   1.675   7.027   7.800  1.0941  0.3576 -0.5941
12480SOL    HW238882   1.600   6.896   7.809  1.2969  0.3295  1.1554
12481SOL     OW38883   4.808   3.823   8.478  0.2198  0.3717  0.3135
12481SOL    HW138884   4.759   3.794   8.556  0.8059 -0.1492  0.4925
12481SOL    HW238885   4.742   3.869   8.425 -0.6290 -0.8871  0.2380
12482SOL     OW38886   1.071   1.159   5.282 -0.5883 -0.2411 -0.2438
12482SOL    HW138887   1.055   1.098   5.353 -1.3199  0.0730 -0.1221
12482SOL    HW238888   1.166   1.162   5.272 -0.5297 -0.9644  0.1189
12483SOL     OW38889   7.742   1.507   4.237 -0.0090 -0.1248 -0.2102
12483SOL    HW138890   7.699   1.534   4.318 -0.2096 -0.8671 -0.0637
12483SOL    HW238891   7.681   1.534   4.168 -1.0720 -1.7818  0.0295
12484SOL     OW38892   3.086   5.307   5.244  0.1946  0.5481  0.0165
12484SOL    HW138893   3.012   5.302   5.304  1.7981 -1.1527  1.9561
12484SOL    HW238894   3.118   5.397   5.253 -0.5789  0.7860  0.4542
12485SOL     OW38895   3.170   2.318   3.163 -0.3223  0.0391  0.2365
12485SOL    HW138896   3.122   2.389   3.120 -1.7701 -0.3650  1.1332
12485SOL    HW238897   3.188   2.352   3.251  1.3216  0.2872 -0.1575
12486SOL     OW38898   1.749   4.242   7.581  0.3210  0.5587  0.1508
12486SOL    HW138899   1.830   4.208   7.544  1.3420  2.7880  0.1927
12486SOL    HW238900   1.768   4.258   7.673 -0.8223 -0.7234  0.6536
12487SOL     OW38901   6.923   4.887   2.208 -0.3363  0.1337 -0.1225
12487SOL    HW138902   6.868   4.819   2.169 -0.3414  0.4727 -0.7327
12487SOL    HW238903   7.011   4.870   2.175 -0.0715 -0.3919  0.8349
12488SOL     OW38904   5.290   7.704  11.139 -0.4897 -0.5464 -0.1309
12488SOL    HW138905   5.206   7.700  11.094 -0.9597  0.1225  0.6527
12488SOL    HW238906   5.269   7.688  11.231  0.1232  0.4077  0.1945
12489SOL     OW38907   5.159   7.814   3.584 -0.6486  0.3005  0.4910
12489SOL    HW138908   5.150   7.863   3.503  0.5846 -2.1220 -1.2116
12489SOL    HW238909   5.139   7.878   3.653 -0.2036  2.8507 -1.6041
12490SOL     OW38910   6.000   7.389   5.808 -0.4714 -0.3967  0.0059
12490SOL    HW138911   6.073   7.447   5.829 -0.1273 -0.3452 -1.2579
12490SOL    HW238912   5.924   7.433   5.844  0.1650 -0.7533  1.8966
12491SOL     OW38913   2.229   3.156   2.690  0.0827  0.0061  0.4969
12491SOL    HW138914   2.191   3.069   2.701 -0.8354  0.3430  0.0695
12491SOL    HW238915   2.169   3.202   2.631  2.6121 -0.3650 -2.6618
12492SOL     OW38916   1.310   0.499   4.382  1.1661 -0.4228 -0.5036
12492SOL    HW138917   1.217   0.487   4.362  0.6331  0.9226  0.9475
12492SOL    HW238918   1.352   0.418   4.353 -0.6701 -1.6175  0.0340
12493SOL     OW38919   0.778   6.382   0.264  0.0514 -0.3589 -0.3965
12493SOL    HW138920   0.776   6.355   0.355 -0.2595 -0.3387 -0.3961
12493SOL    HW238921   0.820   6.309   0.218 -1.0003 -0.9637 -0.4311
12494SOL     OW38922   1.628   0.555   3.101  0.5206 -0.5437  0.2803
12494SOL    HW138923   1.545   0.552   3.149 -0.7788  0.2838 -1.7990
12494SOL    HW238924   1.634   0.644   3.067  1.9787 -0.7588 -0.1364
12495SOL     OW38925   1.268   1.338   2.615 -0.1859  0.1199 -0.1841
12495SOL    HW138926   1.221   1.301   2.540  0.3488  0.0840 -0.5140
12495SOL    HW238927   1.209   1.403   2.651 -0.4980  0.0582 -0.5769
12496SOL     OW38928   1.534   5.428   0.911 -0.2965 -0.3263 -0.7478
12496SOL    HW138929   1.504   5.500   0.855  0.7541  0.4048 -0.4081
12496SOL    HW238930   1.508   5.349   0.865  0.7202  0.2501 -2.3841
12497SOL     OW38931   5.736   4.271   1.883 -0.0135 -0.2537 -0.1610
12497SOL    HW138932   5.709   4.179   1.882  1.4886 -0.7303 -0.2910
12497SOL    HW238933   5.825   4.270   1.846  0.3644  1.1335  0.6379
12498SOL     OW38934   6.663   4.734  11.035  0.0841 -0.1227  0.0417
12498SOL    HW138935   6.570   4.721  11.056 -0.5495  3.7716  0.3362
12498SOL    HW238936   6.663   4.761  10.944  0.8989  0.1868  0.1284
12499SOL     OW38937   0.202   7.052  11.512  0.1584  0.1017 -0.4474
12499SOL    HW138938   0.133   6.993  11.483 -0.0665  0.1207  0.0330
12499SOL    HW238939   0.159   7.109  11.577  0.7165 -0.1627  0.1671
12500SOL     OW38940   0.241   6.717   1.385 -0.1364  0.1999 -0.0799
12500SOL    HW138941   0.218   6.688   1.473 -2.4960 -2.2267 -1.3509
12500SOL    HW238942   0.158   6.746   1.347  0.9540  1.8773 -1.3311
12501SOL     OW38943   0.099   1.408   9.867  0.5734 -0.1387  0.1339
12501SOL    HW138944   0.018   1.358   9.880 -0.0275  1.0749  1.2374
12501SOL    HW238945   0.163   1.366   9.925  0.4719 -0.4797  0.0060
12502SOL     OW38946   4.195   1.491  10.537  0.3650  0.8690 -0.1551
12502SOL    HW138947   4.186   1.494  10.632 -0.9203  1.2492 -0.2649
12502SOL    HW238948   4.117   1.535  10.504  0.4313  0.1265 -1.3951
12503SOL     OW38949   6.047   3.658   2.439 -0.0136 -0.9969 -0.5014
12503SOL    HW138950   6.126   3.615   2.471  0.9005  0.3960 -0.7471
12503SOL    HW238951   6.080   3.720   2.372 -0.9005  1.6611  1.3471
12504SOL     OW38952   3.357   0.092   7.822 -0.3949  0.1878 -0.6456
12504SOL    HW138953   3.383   0.184   7.817 -0.7828  0.3760  0.5360
12504SOL    HW238954   3.407   0.049   7.752 -0.2381  1.2936 -1.2321
12505SOL     OW38955   2.490   5.470  11.674  0.0870  0.4482  0.2601
12505SOL    HW138956   2.586   5.463  11.672  0.1166  0.9378 -0.0950
12505SOL    HW238957   2.465   5.485  11.583 -0.1774  2.1449  0.5905
12506SOL     OW38958   1.815   5.731   0.667 -0.3646 -0.2692 -0.6573
12506SOL    HW138959   1.806   5.752   0.760 -2.4396 -0.1238 -0.8468
12506SOL    HW238960   1.855   5.809   0.629  2.2689 -1.0309  0.3512
12507SOL     OW38961   4.894   5.109   6.194 -0.9645 -0.1112 -0.2430
12507SOL    HW138962   4.819   5.097   6.135 -0.2811 -1.0431 -0.9504
12507SOL    HW238963   4.873   5.056   6.271  0.3251 -3.0698 -1.7610
12508SOL     OW38964   2.170   1.485   9.286  0.0516  0.3777  0.0579
12508SOL    HW138965   2.258   1.475   9.249  0.7680  1.3643  1.4066
12508SOL    HW238966   2.115   1.428   9.233  1.4877 -0.1743 -0.8916
12509SOL     OW38967   3.110   5.692   3.253 -0.1367 -0.1777 -0.2389
12509SOL    HW138968   3.117   5.735   3.167 -1.6976 -0.9929 -0.7992
12509SOL    HW238969   3.052   5.617   3.238  0.9830 -1.3753  1.1485
12510SOL     OW38970   4.899   2.431   0.427 -0.1236  0.1175  0.5162
12510SOL    HW138971   4.832   2.407   0.491 -0.7576 -0.5511 -0.3719
12510SOL    HW238972   4.868   2.515   0.390  0.0737  0.3384  0.8518
12511SOL     OW38973   1.641   6.525   7.104  0.5538 -0.2379 -0.2127
12511SOL    HW138974   1.678   6.551   7.188  1.2773 -1.6529 -0.0704
12511SOL    HW238975   1.664   6.596   7.044 -1.8060  1.8941  1.1696
12512SOL     OW38976   0.514   1.650   9.036  0.1053  0.4883 -0.1532
12512SOL    HW138977   0.506   1.617   8.947  0.3773  2.0575 -0.7884
12512SOL    HW238978   0.547   1.575   9.086  0.4475 -0.2770 -1.4627
12513SOL     OW38979   5.778   1.766   0.096  0.0519  0.1583 -0.2554
12513SOL    HW138980   5.722   1.809   0.031  0.3040  0.4592 -0.2776
12513SOL    HW238981   5.770   1.821   0.174 -0.4435 -0.3384  0.0483
12514SOL     OW38982   2.651   2.055   1.877  0.2960  0.5353 -0.4434
12514SOL    HW138983   2.570   2.088   1.837 -0.7831 -0.7372  0.6065
12514SOL    HW238984   2.679   2.125   1.936 -0.3132  0.7807 -0.4443
12515SOL     OW38985   5.734   0.727  12.084  0.2061  0.3219 -0.7272
12515SOL    HW138986   5.693   0.767  12.161 -2.8847 -1.7596 -1.0809
12515SOL    HW238987   5.828   0.733  12.100 -0.2746  2.1344  2.0159
12516SOL     OW38988   5.010   0.146   9.061 -0.2730 -0.1935  0.7190
12516SOL    HW138989   5.013   0.176   9.152 -1.6107  1.6326  0.2016
12516SOL    HW238990   4.948   0.073   9.062  0.9686 -1.3137  1.5023
12517SOL     OW38991   4.451   5.985   1.815  0.3794 -0.2991 -0.1733
12517SOL    HW138992   4.374   5.942   1.777  0.7267  0.7176 -2.1397
12517SOL    HW238993   4.416   6.062   1.860 -0.0513 -1.6000  1.9088
12518SOL     OW38994   0.528   6.546   7.811  0.7444 -0.3406 -0.0990
12518SOL    HW138995   0.480   6.566   7.730 -0.5883 -5.3860 -0.8609
12518SOL    HW238996   0.619   6.566   7.790 -0.0512  2.9867 -1.0150
12519SOL     OW38997   1.108   3.309   5.775  0.2263 -0.1013 -0.6135
12519SOL    HW138998   1.027   3.269   5.805  1.1127 -0.9879  0.6929
12519SOL    HW238999   1.091   3.332   5.683 -1.2546 -0.8777 -0.5619
12520SOL     OW39000   2.553   7.532   7.976 -0.3282 -0.2901  0.4197
12520SOL    HW139001   2.574   7.492   8.060  1.4724 -1.4520 -0.5208
12520SOL    HW239002   2.619   7.600   7.964 -0.4687 -0.2479 -0.1394
12521SOL     OW39003   0.175   0.439   5.314 -0.0174  0.0036 -0.4431
12521SOL    HW139004   0.106   0.373   5.307 -0.1170  0.1439 -0.8271
12521SOL    HW239005   0.127   0.520   5.334 -0.1026  0.3650 -2.0047
12522SOL     OW39006   0.409   7.133  11.888  0.4043  0.5658  0.0006
12522SOL    HW139007   0.465   7.207  11.863  1.0180 -0.3007 -1.2897
12522SOL    HW239008   0.329   7.145  11.837  0.2835  0.6316  0.2051
12523SOL     OW39009   3.557   6.242  10.182 -0.6079 -0.6992  0.8906
12523SOL    HW139010   3.634   6.274  10.229 -0.7434  0.2910  0.4521
12523SOL    HW239011   3.589   6.225  10.094 -1.1588  0.9675  0.3385
12524SOL     OW39012   2.748   1.664   0.368 -0.1913 -0.4106  0.0988
12524SOL    HW139013   2.814   1.616   0.318  2.2690  2.2184  0.6008
12524SOL    HW239014   2.720   1.734   0.308 -0.1613  0.3779  0.9878
12525SOL     OW39015   0.351   0.909  10.744  0.3402  0.4291 -0.2119
12525SOL    HW139016   0.410   0.972  10.787  0.2461  0.2740  0.1451
12525SOL    HW239017   0.346   0.835  10.804  0.3238  0.1432 -0.5596
12526SOL     OW39018   1.371   1.927   7.481 -0.1862  0.1894  0.2097
12526SOL    HW139019   1.431   1.870   7.433 -1.3220 -0.8382 -0.0674
12526SOL    HW239020   1.366   1.888   7.569 -0.6079  0.1260  0.1599
12527SOL     OW39021   1.477   2.994  11.786  0.4542 -0.3100  0.1494
12527SOL    HW139022   1.408   2.932  11.810  0.3600 -0.3510 -0.2175
12527SOL    HW239023   1.553   2.939  11.769  0.8993 -0.1899  1.6232
12528SOL     OW39024   4.542   7.764   3.241 -0.2708 -0.4918 -0.4886
12528SOL    HW139025   4.594   7.809   3.308 -0.6915  1.5477 -1.4301
12528SOL    HW239026   4.521   7.679   3.279  0.4205  0.1747  1.5040
12529SOL     OW39027   5.589   6.807  12.010 -0.1041  0.1766 -0.2497
12529SOL    HW139028   5.584   6.745  12.083 -0.3314 -0.1556 -0.5417
12529SOL    HW239029   5.658   6.868  12.035  0.0808 -0.1580  0.0725
12530SOL     OW39030   2.935   4.900   7.642  0.5677 -0.5559 -0.1641
12530SOL    HW139031   2.954   4.985   7.601  0.8617 -0.5305  0.0221
12530SOL    HW239032   2.989   4.899   7.721  1.3309 -1.3249 -0.6702
12531SOL     OW39033   6.258   4.520   9.315  0.3140  0.1893  0.4044
12531SOL    HW139034   6.224   4.495   9.229  0.5388  0.8266  0.1233
12531SOL    HW239035   6.346   4.482   9.318 -0.1240 -0.8335  0.8360
12532SOL     OW39036   2.667   3.089   5.849  0.7435  0.2039 -0.0937
12532SOL    HW139037   2.642   3.177   5.877  0.2810 -0.0154  0.1980
12532SOL    HW239038   2.758   3.080   5.877  0.8837  0.6943 -0.3834
12533SOL     OW39039   2.035   1.841  11.521 -0.5867 -0.0241 -0.4953
12533SOL    HW139040   2.028   1.756  11.476  1.1878 -0.9431  0.8153
12533SOL    HW239041   2.089   1.894  11.463 -1.1348 -0.0134 -1.0063
12534SOL     OW39042   5.865   6.088   0.761  0.4288 -0.0843 -0.1310
12534SOL    HW139043   5.943   6.081   0.705 -0.4546 -3.1787 -1.1607
12534SOL    HW239044   5.840   6.180   0.754  1.4872  0.1010 -3.3115
12535SOL     OW39045   2.908   3.263   2.571 -0.4925  0.1663 -0.3459
12535SOL    HW139046   2.949   3.334   2.522  1.7539 -0.1649  0.8964
12535SOL    HW239047   2.868   3.306   2.647 -0.4881  0.2687 -0.4019
12536SOL     OW39048   4.657   5.510   9.246 -0.4755 -0.8911  0.4254
12536SOL    HW139049   4.614   5.441   9.195 -1.5333  1.1588 -1.6397
12536SOL    HW239050   4.585   5.551   9.295 -0.1562 -0.1198  0.2480
12537SOL     OW39051   7.783   3.961  10.962  0.4537  0.0280 -0.0858
12537SOL    HW139052   7.724   3.929  10.894  0.5281  1.5478 -0.9181
12537SOL    HW239053   7.868   3.970  10.917  1.1883 -1.5041  0.9233
12538SOL     OW39054   2.207   2.376   7.512  0.3981  0.2825  0.4829
12538SOL    HW139055   2.191   2.415   7.426  1.8163 -1.7344 -0.7993
12538SOL    HW239056   2.256   2.442   7.560  0.3570  1.1113 -0.5841
12539SOL     OW39057   3.651   1.703   2.160  0.8325 -0.2385  0.0617
12539SOL    HW139058   3.628   1.796   2.157  1.0061 -0.2084 -2.9141
12539SOL    HW239059   3.737   1.701   2.203  1.2607  1.1127 -0.6663
12540SOL     OW39060   4.640   0.917   6.615 -0.1670  0.0760 -0.8573
12540SOL    HW139061   4.612   1.006   6.640 -1.9081 -0.5325 -0.5196
12540SOL    HW239062   4.706   0.931   6.547  0.1732  1.6448 -0.2487
12541SOL     OW39063   0.894   0.978   3.272  0.2082  0.2028  0.7096
12541SOL    HW139064   0.963   0.965   3.337  0.0121 -1.2890  0.6574
12541SOL    HW239065   0.938   1.016   3.196  1.3347 -2.1838  0.0778
12542SOL     OW39066   3.857   5.774   8.828  0.3416 -0.1940  0.0979
12542SOL    HW139067   3.818   5.803   8.910 -0.9036 -2.2846  0.3140
12542SOL    HW239068   3.890   5.854   8.788  1.6353  0.8148  2.9243
12543SOL     OW39069   2.955   6.307   8.247 -0.2692 -0.2943 -0.6428
12543SOL    HW139070   3.003   6.379   8.287  0.6997 -0.1286 -2.0576
12543SOL    HW239071   2.863   6.324   8.269  0.1030  0.4637  0.3976
12544SOL     OW39072   2.536   6.849  10.892  0.2903  0.1937 -0.0122
12544SOL    HW139073   2.515   6.942  10.886 -0.3866  0.1047  0.7928
12544SOL    HW239074   2.620   6.840  10.846  0.8715  1.3723  0.7674
12545SOL     OW39075   3.520   6.025   5.732  0.3563 -0.0535  0.5516
12545SOL    HW139076   3.442   6.049   5.682 -0.1971  1.8354  2.2020
12545SOL    HW239077   3.593   6.047   5.675 -0.2772  0.8902  0.0829
12546SOL     OW39078   3.553   4.186   7.030  0.1966  0.0745 -0.0568
12546SOL    HW139079   3.560   4.154   7.120 -1.2182  0.1519  0.0957
12546SOL    HW239080   3.578   4.111   6.976 -1.2446 -0.7239  0.3523
12547SOL     OW39081   4.735   2.840   0.904 -0.7362  0.0725 -0.0228
12547SOL    HW139082   4.731   2.897   0.981  0.5540  1.1249 -0.7076
12547SOL    HW239083   4.744   2.899   0.830  0.1500 -0.9839 -0.8023
12548SOL     OW39084   7.707   7.773   7.922  0.0960 -0.3679 -0.2865
12548SOL    HW139085   7.741   7.827   7.993  0.5261 -0.0732 -0.7062
12548SOL    HW239086   7.785   7.749   7.871 -0.2169 -0.4699 -0.7233
12549SOL     OW39087   3.595   4.071   7.275  0.0339 -0.1442  0.1410
12549SOL    HW139088   3.537   4.001   7.305 -0.9430  0.8309  0.6437
12549SOL    HW239089   3.683   4.042   7.299 -0.2688 -1.5191 -0.3514
12550SOL     OW39090   7.287   3.003   3.121 -0.0351  0.1067 -0.4745
12550SOL    HW139091   7.299   3.097   3.131 -1.3866  0.5774 -2.6210
12550SOL    HW239092   7.278   2.990   3.027 -2.8703 -1.7581 -0.0679
12551SOL     OW39093   2.727   0.771   8.811  0.3005 -0.0360 -0.0453
12551SOL    HW139094   2.637   0.789   8.838  0.4781  1.0374 -0.1136
12551SOL    HW239095   2.779   0.840   8.854  0.9242  0.1088 -0.9997
12552SOL     OW39096   5.772   6.904  11.094  0.2057 -0.9306 -0.0148
12552SOL    HW139097   5.731   6.817  11.088  1.1838 -1.3747 -0.6197
12552SOL    HW239098   5.765   6.940  11.006 -0.2007 -0.3878  0.2371
12553SOL     OW39099   0.528   7.409   3.458  0.7539  0.0040  0.0196
12553SOL    HW139100   0.494   7.344   3.520  0.0289 -1.5094 -1.8423
12553SOL    HW239101   0.594   7.458   3.507 -2.9397  2.0792  3.3822
12554SOL     OW39102   5.612   0.812   1.280 -0.8953 -0.1267 -0.5177
12554SOL    HW139103   5.629   0.792   1.188 -1.9773  0.3747 -0.8423
12554SOL    HW239104   5.620   0.728   1.325  0.3066 -0.2709 -0.9428
12555SOL     OW39105   5.581   2.645  10.121  0.4401  0.1431 -0.2524
12555SOL    HW139106   5.544   2.715  10.067  1.3386  0.3920 -0.5670
12555SOL    HW239107   5.556   2.668  10.210 -2.3671 -1.0626 -0.6223
12556SOL     OW39108   0.091   0.388   6.074  0.4605  0.2617  0.3217
12556SOL    HW139109   0.108   0.396   6.168 -2.1730  0.8199  0.8524
12556SOL    HW239110   0.015   0.329   6.069 -0.3918  1.4196 -1.3086
12557SOL     OW39111   1.481   3.351  10.969  0.0564 -0.5864  0.0607
12557SOL    HW139112   1.554   3.290  10.978  0.8191  0.3152  0.1339
12557SOL    HW239113   1.505   3.425  11.024 -0.7881 -0.1519 -0.1383
12558SOL     OW39114   6.782   1.371   1.330 -0.1118  0.0588 -0.8465
12558SOL    HW139115   6.859   1.326   1.296 -1.2223 -2.3535 -0.3929
12558SOL    HW239116   6.727   1.386   1.252 -0.5318 -1.0686 -0.7808
12559SOL     OW39117   3.638   0.792   1.490  0.3083  0.1933 -0.4598
12559SOL    HW139118   3.694   0.867   1.510 -0.3906  0.4582  0.5885
12559SOL    HW239119   3.691   0.716   1.514  0.8435  0.3575 -1.0843
12560SOL     OW39120   1.928   7.009   7.500  0.0564  0.0907 -0.7609
12560SOL    HW139121   1.864   7.076   7.477 -0.9374 -0.6918 -0.3508
12560SOL    HW239122   1.876   6.930   7.511  1.0339 -0.4472  0.1061
12561SOL     OW39123   3.797   7.080  10.318 -0.1101 -0.1485 -0.2133
12561SOL    HW139124   3.846   7.089  10.400  2.2030 -1.2878 -1.3867
12561SOL    HW239125   3.826   6.996  10.283 -1.1780  0.2478 -2.1363
12562SOL     OW39126   6.432   5.058   4.424  0.3248  0.0367  1.0123
12562SOL    HW139127   6.482   5.091   4.349  0.1286  0.4953  1.0748
12562SOL    HW239128   6.341   5.070   4.399  0.1836 -2.0964  0.3193
12563SOL     OW39129   0.053   7.560  11.931  0.4216  0.6927  0.4719
12563SOL    HW139130   0.015   7.637  11.888 -1.6569 -1.0413 -0.9746
12563SOL    HW239131   0.141   7.554  11.894  0.1119  1.5789 -0.4691
12564SOL     OW39132   4.954   4.005   9.392  0.0145 -0.3292 -0.1329
12564SOL    HW139133   5.008   4.077   9.358 -1.4185  0.0428 -1.7195
12564SOL    HW239134   4.962   3.936   9.327 -0.3282 -0.7901  0.3121
12565SOL     OW39135   4.739   6.193   6.789  0.1950  0.1076  0.3119
12565SOL    HW139136   4.664   6.138   6.815  0.7168 -0.4416  0.6732
12565SOL    HW239137   4.733   6.197   6.693  0.2585 -0.7544  0.2598
12566SOL     OW39138   7.483   0.197   2.016 -0.3501 -0.1029 -0.2730
12566SOL    HW139139   7.518   0.108   2.006 -0.3456 -0.0552 -0.6791
12566SOL    HW239140   7.545   0.241   2.073  0.1291 -0.0914 -0.7993
12567SOL     OW39141   3.662   5.667   5.278  0.0661  0.2248  0.1070
12567SOL    HW139142   3.639   5.705   5.193 -1.4999 -0.1088  0.3564
12567SOL    HW239143   3.659   5.740   5.339 -1.2605  0.0333  0.2898
12568SOL     OW39144   0.388   7.118   0.525 -0.0951  0.3318  0.7170
12568SOL    HW139145   0.380   7.174   0.602  0.7627  2.4652 -0.6435
12568SOL    HW239146   0.373   7.177   0.451 -0.5082 -1.5482 -0.7901
12569SOL     OW39147   0.862   2.753   5.886  0.8218  0.5191  0.5153
12569SOL    HW139148   0.916   2.789   5.956  0.7284 -1.5524  1.7416
12569SOL    HW239149   0.827   2.672   5.922 -1.5958  0.8276 -0.9096
12570SOL     OW39150   1.295   3.897   7.175 -0.3784  0.4787  0.0380
12570SOL    HW139151   1.316   3.837   7.247  0.7719 -1.3232 -1.7054
12570SOL    HW239152   1.200   3.907   7.179 -0.5625 -1.1735  0.6224
12571SOL     OW39153   2.107   7.466   7.331  0.4398  0.2808  0.5619
12571SOL    HW139154   2.050   7.514   7.391 -0.4843  0.5270 -0.4800
12571SOL    HW239155   2.128   7.530   7.262  1.3400 -0.0441  0.5133
12572SOL     OW39156   5.230   4.948  11.389  0.2543  0.2533  0.1799
12572SOL    HW139157   5.267   5.033  11.366  0.6729  0.6926  2.2887
12572SOL    HW239158   5.233   4.945  11.484  0.9033 -2.4315  0.1464
12573SOL     OW39159   6.577   7.766   1.287 -0.1362  0.4489  0.0710
12573SOL    HW139160   6.667   7.765   1.320  0.6121  0.1794 -1.8479
12573SOL    HW239161   6.586   7.765   1.192 -2.1779  1.1778 -0.1843
12574SOL     OW39162   6.505   0.824   7.441 -0.1197  0.0161  0.0394
12574SOL    HW139163   6.568   0.892   7.466  0.3717 -0.3304 -0.2368
12574SOL    HW239164   6.421   0.869   7.442  0.0686  0.3705  0.8784
12575SOL     OW39165   0.257   3.722   4.402  0.4572 -0.3652 -0.1691
12575SOL    HW139166   0.184   3.765   4.357  1.4022  0.3629 -1.0341
12575SOL    HW239167   0.290   3.658   4.339 -0.6099 -2.1047  0.9176
12576SOL     OW39168   0.742   7.412   6.689 -0.1637 -0.2056  0.2116
12576SOL    HW139169   0.671   7.353   6.713  0.2875 -0.3540  1.2660
12576SOL    HW239170   0.798   7.360   6.630 -0.6979 -0.2276 -0.2809
12577SOL     OW39171   4.652   3.757  10.141  0.1150 -0.5313 -0.0613
12577SOL    HW139172   4.737   3.722  10.115 -0.1428 -1.1682 -0.0600
12577SOL    HW239173   4.669   3.806  10.222  0.3869 -1.0966  0.2252
12578SOL     OW39174   1.274   0.663  10.944 -0.2587 -0.2470  0.6766
12578SOL    HW139175   1.285   0.584  10.997 -0.9922  0.6900  2.3082
12578SOL    HW239176   1.198   0.646  10.889 -1.2789 -0.1785  2.0283
12579SOL     OW39177   4.286   6.041   3.056  0.1198 -0.1672  0.2057
12579SOL    HW139178   4.367   6.008   3.017  0.1564  0.0556  0.0942
12579SOL    HW239179   4.217   6.004   3.001  0.1728  0.1828 -0.0970
12580SOL     OW39180   4.722   6.222  11.006 -0.1239 -0.2741 -0.0253
12580SOL    HW139181   4.686   6.271  11.079  1.9979  0.1153  0.8315
12580SOL    HW239182   4.814   6.247  11.003  0.6758 -2.9049 -0.6233
12581SOL     OW39183   1.358   0.003   2.039 -0.1901 -0.1516 -0.5220
12581SOL    HW139184   1.412   0.082   2.035  0.0673 -0.3378 -0.8232
12581SOL    HW239185   1.273   0.032   2.072 -0.8052  0.6328 -2.6770
12582SOL     OW39186   5.713   2.221   3.325  0.6593  0.0897  0.3446
12582SOL    HW139187   5.730   2.170   3.245  1.0983 -1.7594  1.5736
12582SOL    HW239188   5.632   2.268   3.306  2.8236  3.1106 -2.8005
12583SOL     OW39189   0.569   6.075   4.054 -0.0318 -0.1627  0.4719
12583SOL    HW139190   0.645   6.020   4.037 -0.7139 -0.5190 -1.6775
12583SOL    HW239191   0.496   6.014   4.064 -0.1917  0.2102  1.8251
12584SOL     OW39192   7.166   0.045   5.826  0.3866  1.1290  0.3840
12584SOL    HW139193   7.223   0.065   5.752  0.7553  1.0419  0.6424
12584SOL    HW239194   7.103   0.117   5.829 -1.5806 -0.3529 -1.9060
12585SOL     OW39195   5.844   7.046  11.603  0.0911  0.5409 -0.0824
12585SOL    HW139196   5.767   7.071  11.653  1.6109  0.8956  2.2136
12585SOL    HW239197   5.878   7.129  11.568  0.1414  0.5317 -0.0547
12586SOL     OW39198   7.659   2.415  11.949 -0.2896  0.3317 -0.2162
12586SOL    HW139199   7.568   2.429  11.921 -0.5547 -2.2155 -0.8672
12586SOL    HW239200   7.651   2.365  12.030  0.5042 -0.4487 -0.6047
12587SOL     OW39201   2.430   6.802   8.592 -0.1109 -0.0016  0.0837
12587SOL    HW139202   2.454   6.854   8.669  2.0319 -1.6595  0.6223
12587SOL    HW239203   2.437   6.711   8.621 -1.6421 -0.6476 -1.4313
12588SOL     OW39204   0.322   5.821   1.250  0.3411  0.2369  0.2562
12588SOL    HW139205   0.340   5.840   1.342  0.4495 -2.5257  0.8929
12588SOL    HW239206   0.397   5.769   1.220  0.9647  2.1755 -1.8442
12589SOL     OW39207   4.752   6.489   9.803  0.0514 -0.1181  0.0389
12589SOL    HW139208   4.792   6.576   9.795 -0.7779  0.2015 -0.7232
12589SOL    HW239209   4.659   6.503   9.791 -0.0704 -1.1510 -0.3686
12590SOL     OW39210   0.028   0.443   2.420  0.2664 -0.4264 -0.3201
12590SOL    HW139211   0.026   0.349   2.398 -1.4751  0.1883 -3.3296
12590SOL    HW239212  -0.052   0.478   2.382  1.2514  2.4629  0.0399
12591SOL     OW39213   0.397   7.729   6.776 -1.4411  1.1513 -0.0226
12591SOL    HW139214   0.491   7.748   6.774 -1.2663  0.4400  0.8742
12591SOL    HW239215   0.357   7.811   6.807 -0.9965  1.0817  0.7553
12592SOL     OW39216   2.070   1.986   6.454  0.1800 -0.8741  0.4886
12592SOL    HW139217   2.146   2.026   6.411  1.4138 -2.5578  0.9604
12592SOL    HW239218   2.017   1.952   6.382  0.4070 -0.5807  0.1780
12593SOL     OW39219   4.545   2.113   6.655 -0.3527 -0.4672 -0.4960
12593SOL    HW139220   4.563   2.141   6.566 -1.1791 -2.0723 -1.1978
12593SOL    HW239221   4.485   2.039   6.646 -0.1601 -0.9052  1.3652
12594SOL     OW39222   6.331   6.844   4.941  0.2013  0.5027  0.2187
12594SOL    HW139223   6.355   6.927   4.900  0.9834  0.5328  0.7065
12594SOL    HW239224   6.273   6.869   5.013 -0.4473  0.5251 -0.3032
12595SOL     OW39225   0.324   6.724  10.954 -0.6570 -0.6575 -0.0356
12595SOL    HW139226   0.245   6.678  10.983 -0.6696 -0.7973 -0.2886
12595SOL    HW239227   0.391   6.702  11.019 -0.9633 -0.1096  0.4785
12596SOL     OW39228   5.519   1.917   4.797  0.0567 -1.2112  0.0481
12596SOL    HW139229   5.525   1.857   4.722 -0.0565 -1.1915  0.0225
12596SOL    HW239230   5.514   2.004   4.757 -1.4912 -1.2881  0.0226
12597SOL     OW39231   4.096   4.397  11.559 -0.3014  0.1461 -0.2610
12597SOL    HW139232   4.123   4.411  11.650  1.0385 -2.5378 -0.1531
12597SOL    HW239233   4.178   4.402  11.509 -0.2483 -2.8021 -0.6475
12598SOL     OW39234   2.241   2.628  11.983  0.3640  0.1796  0.0380
12598SOL    HW139235   2.167   2.620  12.043  2.4008 -3.3515  2.3864
12598SOL    HW239236   2.205   2.602  11.898 -1.7489  1.6784  0.4083
12599SOL     OW39237   0.655   7.754   8.399  0.3858  0.1469  0.0264
12599SOL    HW139238   0.704   7.673   8.384  0.7091  0.3620 -0.1000
12599SOL    HW239239   0.648   7.793   8.312  1.1485  0.7693  0.2284
12600SOL     OW39240   1.155   5.279   4.792 -0.7030 -0.0810 -0.2813
12600SOL    HW139241   1.145   5.302   4.885 -2.3979 -0.8461 -0.2395
12600SOL    HW239242   1.124   5.189   4.787 -1.1024  0.1232 -1.6884
12601SOL     OW39243   3.531   5.874  12.303 -0.1459  0.5566 -0.0499
12601SOL    HW139244   3.568   5.962  12.296 -2.1079  1.3366 -1.6793
12601SOL    HW239245   3.461   5.872  12.238 -0.8200 -1.8963  0.6329
12602SOL     OW39246   6.980   7.951  10.368  0.2509  0.4715  0.2514
12602SOL    HW139247   6.955   7.906  10.449  0.3327 -0.3257 -0.1589
12602SOL    HW239248   6.901   7.947  10.314  1.2050 -2.2668 -1.1500
12603SOL     OW39249   4.475   4.953   7.629 -0.0136 -0.0968 -0.1857
12603SOL    HW139250   4.495   4.888   7.560  0.6798  0.6684 -0.7252
12603SOL    HW239251   4.385   4.980   7.611 -0.1069 -0.4850 -0.3093
12604SOL     OW39252   6.547   1.664  10.025  0.8678  0.1634 -0.1551
12604SOL    HW139253   6.561   1.570  10.030  1.4995  0.0051 -3.2508
12604SOL    HW239254   6.540   1.683   9.932  2.0783  3.3873  0.2711
12605SOL     OW39255   1.374   7.580   7.739 -0.0608  0.4414  0.1816
12605SOL    HW139256   1.341   7.621   7.659  2.0620  1.0091 -0.4869
12605SOL    HW239257   1.330   7.627   7.810 -0.8723  0.9471 -0.6234
12606SOL     OW39258   7.912   3.813   8.537 -0.3730  0.4050 -0.4215
12606SOL    HW139259   7.916   3.865   8.617 -1.0580 -0.0248 -0.1006
12606SOL    HW239260   7.855   3.739   8.559  1.3910 -1.0871 -0.5263
12607SOL     OW39261   4.857   0.443  12.054  0.1081  0.5875  0.4951
12607SOL    HW139262   4.861   0.364  12.109 -0.1246 -1.2155 -1.8957
12607SOL    HW239263   4.767   0.444  12.021 -0.1165  2.3454  1.0814
12608SOL     OW39264   2.073   3.693   8.931  0.6893  0.4068 -0.0588
12608SOL    HW139265   2.083   3.612   8.981  1.8673  1.1045  0.9221
12608SOL    HW239266   2.156   3.704   8.885  1.1799  1.8287  1.0799
12609SOL     OW39267   5.912   7.746   6.532  0.6111 -0.1335 -0.0396
12609SOL    HW139268   5.917   7.654   6.506  0.8730  0.4047 -2.0425
12609SOL    HW239269   5.836   7.750   6.590 -1.9884 -0.9573 -3.0915
12610SOL     OW39270   2.262   5.997   1.983  0.1856  0.3120 -0.1576
12610SOL    HW139271   2.315   5.951   1.918  0.1952 -1.4489  1.0159
12610SOL    HW239272   2.172   5.992   1.949  0.0704 -1.3191  0.3063
12611SOL     OW39273   1.539   0.310   4.807 -0.0331  0.6753  0.0932
12611SOL    HW139274   1.635   0.309   4.808 -0.0069 -0.7406 -0.9212
12611SOL    HW239275   1.514   0.221   4.829 -1.0918  0.7922 -0.5743
12612SOL     OW39276   0.104   6.313   6.552  0.1248 -0.0754  0.7246
12612SOL    HW139277   0.018   6.304   6.592 -0.1947 -0.7847 -0.0989
12612SOL    HW239278   0.151   6.374   6.609 -0.3280 -1.0228  2.1549
12613SOL     OW39279   3.387   2.284   2.807 -0.3483 -0.3606 -0.3686
12613SOL    HW139280   3.350   2.228   2.739 -0.6446  0.3022 -0.7685
12613SOL    HW239281   3.391   2.371   2.766 -0.0108 -0.0697  0.2752
12614SOL     OW39282   6.825   4.384   7.111  0.1865 -0.1821 -0.3350
12614SOL    HW139283   6.868   4.328   7.175 -0.6107 -0.1892  0.2114
12614SOL    HW239284   6.734   4.354   7.110 -0.8659  2.5019  1.6651
12615SOL     OW39285   7.735   5.457   8.499  0.2192  0.5905 -0.2782
12615SOL    HW139286   7.751   5.517   8.427 -0.0180  0.3341 -0.5466
12615SOL    HW239287   7.811   5.399   8.499  0.2610  0.6451 -0.2681
12616SOL     OW39288   0.048   2.630   7.319 -0.0256 -0.2480 -0.1136
12616SOL    HW139289  -0.015   2.560   7.332 -0.6258  0.3087  0.0444
12616SOL    HW239290   0.067   2.662   7.407 -0.5530  0.4667 -0.2472
12617SOL     OW39291   2.543   3.025   3.356 -0.0691 -0.2623 -0.1042
12617SOL    HW139292   2.486   3.004   3.282  0.7103 -1.8299 -0.2930
12617SOL    HW239293   2.582   2.942   3.382 -0.4793  0.1852  2.2336
12618SOL     OW39294   4.460   4.440  10.346  0.1907 -0.3967 -0.5397
12618SOL    HW139295   4.458   4.525  10.303 -0.7983 -0.9318 -1.6129
12618SOL    HW239296   4.552   4.413  10.341  0.9400  1.4333  1.6076
12619SOL     OW39297   5.614   4.431  10.873 -0.6876  0.5690 -0.0793
12619SOL    HW139298   5.566   4.426  10.790 -0.8576  0.2969  0.0353
12619SOL    HW239299   5.565   4.374  10.933 -0.5628  0.7585  0.2062
12620SOL     OW39300   2.225   5.028   8.665 -0.4834  0.0332 -0.1175
12620SOL    HW139301   2.214   4.949   8.612  1.1511 -0.7063  0.5691
12620SOL    HW239302   2.298   5.074   8.622 -1.5412  1.2810 -0.6189
12621SOL     OW39303   3.820   6.679  12.148  0.4146 -0.3145  0.1197
12621SOL    HW139304   3.913   6.684  12.130  0.3031  3.3762 -0.0817
12621SOL    HW239305   3.778   6.683  12.062  0.0435 -0.1200  0.3062
12622SOL     OW39306   6.314   4.911   5.983 -0.0311 -0.1561  0.7579
12622SOL    HW139307   6.230   4.883   5.946  0.5058  0.0798 -0.7197
12622SOL    HW239308   6.371   4.835   5.974  0.9837  0.7719 -1.8473
12623SOL     OW39309   5.038   1.866   8.632  0.3411 -0.1822 -0.0490
12623SOL    HW139310   4.991   1.786   8.655 -0.0797 -0.2888 -1.2301
12623SOL    HW239311   5.123   1.836   8.600  0.2556 -0.1477 -0.3103
12624SOL     OW39312   4.679   4.455   0.854 -1.1149  0.1524 -0.5721
12624SOL    HW139313   4.712   4.544   0.861 -3.1448  1.1153 -1.9976
12624SOL    HW239314   4.587   4.466   0.829 -1.2294 -2.3316 -1.5378
12625SOL     OW39315   3.966   1.474   4.793 -0.3268 -0.5028  0.1917
12625SOL    HW139316   3.895   1.530   4.762  2.1537  2.9859  0.2896
12625SOL    HW239317   3.996   1.427   4.715 -0.2599  0.9742 -0.6974
12626SOL     OW39318   7.737   4.925   8.965  0.2525  0.5622 -0.0780
12626SOL    HW139319   7.694   4.994   9.014 -1.4954  0.3381 -1.2018
12626SOL    HW239320   7.816   4.904   9.015  0.2360  2.5717  0.8617
12627SOL     OW39321   2.562   0.446   5.171 -0.1155  0.2367  0.3006
12627SOL    HW139322   2.634   0.383   5.161  2.0454  2.8251 -1.7353
12627SOL    HW239323   2.583   0.495   5.251 -0.6962 -0.2209  0.7488
12628SOL     OW39324   6.122   2.008  11.956  0.0519  0.4040 -0.1251
12628SOL    HW139325   6.156   2.038  12.040  0.3002  2.2958 -0.8556
12628SOL    HW239326   6.032   2.040  11.953 -0.0105  0.2086 -0.5172
12629SOL     OW39327   0.544   6.473   1.251  0.5614  0.4563 -0.4421
12629SOL    HW139328   0.563   6.454   1.343  0.6141  0.9003 -0.3606
12629SOL    HW239329   0.529   6.567   1.248  1.5768  0.6156 -1.0553
12630SOL     OW39330   3.778   7.140  11.152  0.6952  0.5956 -0.0785
12630SOL    HW139331   3.799   7.229  11.125 -1.1559  2.2016  3.1912
12630SOL    HW239332   3.812   7.133  11.241  1.7837 -2.4335 -0.6216
12631SOL     OW39333   2.980   1.890   6.653  0.1045  0.5443 -1.0450
12631SOL    HW139334   3.051   1.954   6.651  0.3312  0.3325 -0.2287
12631SOL    HW239335   3.023   1.805   6.644  0.0755  0.3495  0.3835
12632SOL     OW39336   6.753   0.440   1.772 -0.1090  0.4888 -0.0533
12632SOL    HW139337   6.780   0.437   1.680  0.7009  0.5494  0.1764
12632SOL    HW239338   6.699   0.361   1.784  1.2651 -0.4859 -0.1349
12633SOL     OW39339   2.648   7.171   9.299  0.0890 -0.3485 -0.0781
12633SOL    HW139340   2.641   7.076   9.311  1.3421 -0.4318  0.1672
12633SOL    HW239341   2.740   7.190   9.318 -0.1234  0.9011 -0.2535
12634SOL     OW39342   3.383   0.044   8.919 -0.0630 -0.1374 -0.1410
12634SOL    HW139343   3.458   0.100   8.900  0.3773 -1.2583 -1.8979
12634SOL    HW239344   3.308   0.090   8.881  0.0421  0.0713 -0.0935
12635SOL     OW39345   7.731   3.393  11.828 -0.0432  0.0993  0.1705
12635SOL    HW139346   7.661   3.361  11.885  0.3999  0.8897  1.1917
12635SOL    HW239347   7.689   3.460  11.774 -0.5967 -1.0461 -0.8463
12636SOL     OW39348   6.047   2.407  10.428 -0.9707 -0.1331  0.2005
12636SOL    HW139349   5.991   2.379  10.355  1.0125  0.0811 -1.4866
12636SOL    HW239350   6.133   2.370  10.408  0.4109  2.5155  0.7430
12637SOL     OW39351   3.538   0.846   2.982 -0.1764  0.4116  0.0271
12637SOL    HW139352   3.511   0.755   2.974  0.7344  0.1853 -0.6433
12637SOL    HW239353   3.530   0.866   3.075 -1.5982  0.0434  0.0094
12638SOL     OW39354   1.434   3.530   6.981 -0.5299  0.4390  0.5694
12638SOL    HW139355   1.426   3.616   6.941 -0.0325  0.3318  0.2369
12638SOL    HW239356   1.524   3.526   7.012  0.3587 -1.0126 -1.9109
12639SOL     OW39357   3.575   0.039   4.023  0.1961  0.3992  0.4874
12639SOL    HW139358   3.492  -0.009   4.023  0.1657  0.4088  1.6633
12639SOL    HW239359   3.618   0.011   4.104  1.8034 -0.3715 -0.5825
12640SOL     OW39360   2.177   7.865   1.038 -0.4965 -0.0934  0.1298
12640SOL    HW139361   2.179   7.791   0.978 -2.2967 -0.9716  1.0975
12640SOL    HW239362   2.202   7.828   1.122 -0.4423  0.6113  0.4287
12641SOL     OW39363   4.777   1.435   8.835  0.5030  0.1742 -0.1702
12641SOL    HW139364   4.859   1.387   8.825  0.0663 -0.7885  0.6876
12641SOL    HW239365   4.709   1.371   8.815 -0.0487  1.1911 -1.7098
12642SOL     OW39366   3.125   0.260   5.509  0.2534 -0.2426 -0.8771
12642SOL    HW139367   3.208   0.253   5.556  0.5776 -0.8599 -1.5165
12642SOL    HW239368   3.146   0.306   5.428 -0.2750  0.6932 -0.4936
12643SOL     OW39369   7.328   3.808   2.020  0.5020 -0.0382  0.0453
12643SOL    HW139370   7.269   3.865   1.971 -0.9619  0.1042  1.8399
12643SOL    HW239371   7.412   3.853   2.018 -0.2676  1.4812  0.1934
12644SOL     OW39372   5.856   7.726   7.260  0.0690  0.3141 -0.0248
12644SOL    HW139373   5.834   7.633   7.254  0.7738  0.0192  1.4581
12644SOL    HW239374   5.845   7.747   7.353  0.3424  1.6143 -0.2665
12645SOL     OW39375   7.126   1.318   3.259  0.0021  0.0425  0.7913
12645SOL    HW139376   7.173   1.235   3.247 -0.8422 -0.1327 -2.2844
12645SOL    HW239377   7.195   1.385   3.256  0.3805 -0.2266 -3.3777
12646SOL     OW39378   2.356   7.177   5.698  1.1123  0.2379  0.6553
12646SOL    HW139379   2.298   7.110   5.661 -0.0409  1.6468 -0.1559
12646SOL    HW239380   2.412   7.203   5.625  1.4125  0.3418  0.9174
12647SOL     OW39381   7.306   2.053   0.932 -0.3655  0.1438  0.7543
12647SOL    HW139382   7.286   1.976   0.986 -1.0974  0.6148  1.1513
12647SOL    HW239383   7.246   2.046   0.858 -0.1955  0.1593  0.6139
12648SOL     OW39384   2.843   2.331  11.750  0.2460 -0.6156 -0.2530
12648SOL    HW139385   2.846   2.383  11.670 -0.3562 -0.2277 -0.0295
12648SOL    HW239386   2.909   2.370  11.807  0.3879 -0.6320 -0.4058
12649SOL     OW39387   0.718   4.046  10.618  0.9241  0.1166  0.0484
12649SOL    HW139388   0.726   4.013  10.707 -1.4431  0.6255  0.5106
12649SOL    HW239389   0.712   4.141  10.627 -2.8821  0.0599 -0.1875
12650SOL     OW39390   1.894   7.575   8.821 -0.4425  0.0120 -0.5553
12650SOL    HW139391   1.940   7.651   8.857 -2.8749  1.2415  0.1702
12650SOL    HW239392   1.917   7.503   8.880 -0.1651  0.8039  0.3327
12651SOL     OW39393   4.753   1.398   7.166  0.5340  0.9188 -0.5721
12651SOL    HW139394   4.779   1.329   7.106 -1.1058  0.2109 -0.5279
12651SOL    HW239395   4.693   1.355   7.227  0.3926  2.1256  0.1664
12652SOL     OW39396   4.533   2.982   2.065  0.0302  0.0479 -0.0098
12652SOL    HW139397   4.461   2.981   2.003 -0.6035  2.3423  0.5982
12652SOL    HW239398   4.536   2.893   2.100 -1.1380 -0.6370 -1.5555
12653SOL     OW39399   2.391   2.904   9.603 -0.3875  0.2937 -0.2043
12653SOL    HW139400   2.356   2.890   9.691 -1.2230 -3.0867 -0.9272
12653SOL    HW239401   2.316   2.932   9.551 -0.0468  1.5986 -0.0137
12654SOL     OW39402   5.847   2.313   0.070 -0.0537  0.0062  0.4210
12654SOL    HW139403   5.797   2.358   0.001 -0.4428 -0.5782  0.3144
12654SOL    HW239404   5.925   2.280   0.026 -1.0385 -1.6992 -0.1037
12655SOL     OW39405   6.563   0.167   3.053  0.5303  0.7812  0.5023
12655SOL    HW139406   6.547   0.082   3.011  0.6826  0.5993  0.8045
12655SOL    HW239407   6.563   0.230   2.981 -2.6530  0.9858  0.5172
12656SOL     OW39408   5.358   6.069   8.092  0.0490 -0.3300  0.4333
12656SOL    HW139409   5.266   6.057   8.065 -0.5017  2.2585  0.9032
12656SOL    HW239410   5.357   6.056   8.186 -0.4908  2.3697  0.8963
12657SOL     OW39411   1.284   7.872   7.616  0.3405  0.1637 -0.5941
12657SOL    HW139412   1.193   7.847   7.599  0.4768 -1.6162  0.8854
12657SOL    HW239413   1.279   7.936   7.687  0.2274  0.2109 -0.6449
12658SOL     OW39414   7.220   6.782  11.539 -0.2783  0.3648 -0.0800
12658SOL    HW139415   7.183   6.728  11.469 -0.4967  0.3167  0.0711
12658SOL    HW239416   7.194   6.737  11.620  0.8733 -0.1661  0.0077
12659SOL     OW39417   2.473   5.160   3.689  0.2017  0.2742  0.1077
12659SOL    HW139418   2.548   5.217   3.703  0.2926  0.4950 -1.1930
12659SOL    HW239419   2.402   5.202   3.739  0.9641 -0.0517  1.5163
12660SOL     OW39420   7.789   7.303   9.756 -0.6805  0.2994 -0.1910
12660SOL    HW139421   7.720   7.333   9.814 -1.3785  1.3782 -1.5170
12660SOL    HW239422   7.745   7.245   9.694  0.3767 -2.3558  1.3739
12661SOL     OW39423   5.568   4.570   7.438  0.1006 -0.0573 -0.0519
12661SOL    HW139424   5.639   4.620   7.397  0.4166 -0.4723 -0.0196
12661SOL    HW239425   5.520   4.635   7.489  1.8653 -0.1577  1.8543
12662SOL     OW39426   5.644   2.599   6.449 -0.2322 -0.1058 -0.1243
12662SOL    HW139427   5.571   2.660   6.442  0.3053  0.6092  0.2832
12662SOL    HW239428   5.605   2.517   6.478 -0.8445  0.3334  0.3067
12663SOL     OW39429   3.449   5.506  12.138  0.4170  0.2255  0.0696
12663SOL    HW139430   3.536   5.509  12.177 -0.5756  0.8438  2.3957
12663SOL    HW239431   3.423   5.414  12.144 -0.4230  0.5690  2.6588
12664SOL     OW39432   7.877   3.858   0.491  0.4849  0.3697  0.7043
12664SOL    HW139433   7.944   3.866   0.423 -0.0998 -0.4496  0.0123
12664SOL    HW239434   7.822   3.785   0.462 -2.3247  2.6187 -0.1677
12665SOL     OW39435   6.613   5.613   9.648 -0.1950  0.3260 -0.3813
12665SOL    HW139436   6.555   5.678   9.686  1.6288  2.0022 -0.2773
12665SOL    HW239437   6.659   5.574   9.723  0.3751  0.6068 -0.5749
12666SOL     OW39438   1.325   5.253   5.391  0.1387  0.0154  0.0848
12666SOL    HW139439   1.384   5.301   5.449 -0.9443  0.3348  0.9558
12666SOL    HW239440   1.384   5.204   5.332  1.2549  1.1547  0.2111
12667SOL     OW39441   4.433   5.224   5.020 -0.7117 -0.5205 -0.1780
12667SOL    HW139442   4.352   5.194   4.979 -1.1094  2.0938 -1.4719
12667SOL    HW239443   4.405   5.274   5.097 -0.3045 -0.0207 -0.3492
12668SOL     OW39444   4.439   1.072   9.246  0.2429  0.0169 -0.1325
12668SOL    HW139445   4.447   0.987   9.288  0.0676  0.5452  1.0196
12668SOL    HW239446   4.495   1.130   9.298  0.3375  0.6243 -0.8798
12669SOL     OW39447   0.092   5.212   6.508 -0.3944 -0.3818 -0.1457
12669SOL    HW139448   0.171   5.195   6.457 -0.1317  2.1660 -0.7269
12669SOL    HW239449   0.023   5.220   6.442 -1.1786 -2.4649  0.3515
12670SOL     OW39450   7.826   4.470   1.544  0.0136 -0.1451  0.8814
12670SOL    HW139451   7.897   4.491   1.604 -0.2619 -0.3677  1.2902
12670SOL    HW239452   7.753   4.525   1.573  0.0734  0.2294  0.3411
12671SOL     OW39453   6.181   1.922   4.173 -0.0476  1.0874  0.0379
12671SOL    HW139454   6.219   1.966   4.249 -0.1162 -0.4267  0.9916
12671SOL    HW239455   6.222   1.835   4.174 -1.4321  0.4104 -0.5745
12672SOL     OW39456   6.985   0.760  11.024  0.2419 -0.7089  0.1879
12672SOL    HW139457   6.890   0.743  11.027  0.2998 -1.0579  0.1083
12672SOL    HW239458   7.024   0.673  11.021  0.4961 -0.5698 -1.8198
12673SOL     OW39459   2.046   2.525   4.672 -0.1412 -0.3994  0.4650
12673SOL    HW139460   2.058   2.618   4.689 -0.2845 -0.5446  1.4121
12673SOL    HW239461   2.123   2.483   4.710  1.4302 -0.4651 -2.4657
12674SOL     OW39462   4.989   7.197   7.192  0.3899  0.1961 -0.0359
12674SOL    HW139463   5.024   7.206   7.104  1.6568 -0.5314  0.3686
12674SOL    HW239464   4.970   7.287   7.220 -1.1239  0.3623 -1.4399
12675SOL     OW39465   5.664   5.241  10.392  0.2522  0.7245  0.5426
12675SOL    HW139466   5.664   5.214  10.483  1.1364 -1.9239 -0.1514
12675SOL    HW239467   5.579   5.285  10.380 -0.5042 -0.1711  2.2804
12676SOL     OW39468   5.372   5.274   9.340  0.4206  0.0018  0.4651
12676SOL    HW139469   5.380   5.199   9.280 -0.6357  0.1374  0.1224
12676SOL    HW239470   5.441   5.335   9.312  0.9102 -0.5860  0.3679
12677SOL     OW39471   7.830   4.145   6.441  1.0529 -0.3500  0.1601
12677SOL    HW139472   7.899   4.098   6.394  1.6512  0.0366  0.6399
12677SOL    HW239473   7.749   4.116   6.400  1.5253 -0.4964 -0.6904
12678SOL     OW39474   6.785   3.495   6.876  0.9170 -0.4923  0.0222
12678SOL    HW139475   6.813   3.435   6.807 -1.1585 -1.7309  0.1861
12678SOL    HW239476   6.703   3.532   6.844  1.4916  1.3180  0.5066
12679SOL     OW39477   6.164   2.282   8.869 -0.3351 -0.0521 -0.5139
12679SOL    HW139478   6.207   2.223   8.932  0.9449  0.8711 -0.5068
12679SOL    HW239479   6.075   2.247   8.863  0.0391 -1.2715  0.4061
12680SOL     OW39480   5.030   3.088   6.026  0.0756 -0.4891  0.3205
12680SOL    HW139481   5.117   3.049   6.024  0.2246 -0.1323 -0.6007
12680SOL    HW239482   5.046   3.182   6.035 -0.2302 -0.4459  0.4281
12681SOL     OW39483   4.882   0.376   6.630 -0.1427 -0.0124 -0.2564
12681SOL    HW139484   4.865   0.354   6.721 -1.4872  0.8389 -0.2687
12681SOL    HW239485   4.893   0.471   6.630  1.0233 -0.1348 -0.8248
12682SOL     OW39486   3.818   3.778   9.941 -0.7560  0.4723  0.1576
12682SOL    HW139487   3.746   3.841   9.931 -1.1204 -0.1641 -1.8376
12682SOL    HW239488   3.895   3.825   9.908 -0.3808  0.9038  1.6056
12683SOL     OW39489   0.533   2.912   9.477 -0.1483 -0.5034  0.7992
12683SOL    HW139490   0.556   2.967   9.551 -2.5707 -0.3976  1.5749
12683SOL    HW239491   0.588   2.943   9.405 -0.6957  2.2931  1.4683
12684SOL     OW39492   3.138   7.533  11.734 -0.1757 -0.5394  0.3106
12684SOL    HW139493   3.073   7.463  11.745  0.2251 -1.2229 -1.3535
12684SOL    HW239494   3.199   7.499  11.669 -1.7783  2.5876 -3.2080
12685SOL     OW39495   4.934   1.485  11.764  0.0610  0.4673  0.6790
12685SOL    HW139496   4.956   1.392  11.755  0.0290  0.6248 -1.6009
12685SOL    HW239497   4.838   1.487  11.757 -0.0548  0.5851  2.0158
12686SOL     OW39498   1.102   5.213   6.425  0.0598 -0.1089 -0.3557
12686SOL    HW139499   1.008   5.210   6.444  0.1184  1.8913  0.5179
12686SOL    HW239500   1.136   5.132   6.463 -1.2708 -0.7571 -0.4795
12687SOL     OW39501   3.116   2.039   8.230  0.3841  0.3678  0.1094
12687SOL    HW139502   3.147   1.950   8.213 -0.4939  0.0426  0.1614
12687SOL    HW239503   3.196   2.091   8.239  0.8972 -0.1860 -1.1167
12688SOL     OW39504   2.443   5.995   1.533  0.0507 -0.7700 -0.0699
12688SOL    HW139505   2.456   6.088   1.514  0.7468 -0.9006 -0.2581
12688SOL    HW239506   2.452   5.951   1.448  2.8996 -1.3272  0.4313
12689SOL     OW39507   5.066   6.830  10.418  0.1093 -0.4705 -0.4235
12689SOL    HW139508   5.012   6.837  10.339 -0.2488 -2.4225 -0.4231
12689SOL    HW239509   5.002   6.822  10.490  0.2060  5.8556  0.9302
12690SOL     OW39510   0.748   3.171   4.781 -0.0784 -0.4277  0.0393
12690SOL    HW139511   0.745   3.082   4.745  2.2564 -1.3739  1.9400
12690SOL    HW239512   0.684   3.171   4.851 -0.1412 -0.5747 -0.0181
12691SOL     OW39513   4.717   3.031   3.447  0.4145 -0.1282 -0.4461
12691SOL    HW139514   4.694   3.090   3.519  3.7317  0.8185  0.0369
12691SOL    HW239515   4.685   2.945   3.474 -1.1570  0.7552  0.6569
12692SOL     OW39516   0.138   2.077   2.164 -0.0179 -0.2583  0.1420
12692SOL    HW139517   0.111   2.167   2.182 -1.0867 -0.7860  1.3247
12692SOL    HW239518   0.183   2.048   2.244 -0.2736 -0.9900  0.0350
12693SOL     OW39519   4.872   6.499  11.222 -0.1498  0.0028 -1.0437
12693SOL    HW139520   4.787   6.540  11.211  0.0507  1.0670  0.7722
12693SOL    HW239521   4.935   6.571  11.210  0.3021 -0.0954  0.4870
12694SOL     OW39522   4.018   0.691   5.522 -0.2717 -0.3203 -0.1996
12694SOL    HW139523   4.103   0.712   5.560 -0.0578 -0.6513 -0.4901
12694SOL    HW239524   4.033   0.691   5.427 -0.4185 -1.0881 -0.2341
12695SOL     OW39525   7.429   7.567   8.425 -0.2806 -0.0957  0.0526
12695SOL    HW139526   7.429   7.586   8.331 -1.6185  0.7615  0.1934
12695SOL    HW239527   7.355   7.507   8.437 -0.7524  0.5906  0.6750
12696SOL     OW39528   6.178   2.643   2.285  0.0986 -0.1748  0.2545
12696SOL    HW139529   6.147   2.717   2.336  0.6789  1.6900 -1.9347
12696SOL    HW239530   6.226   2.589   2.348 -1.7282  0.4096  2.2431
12697SOL     OW39531   0.757   7.050  12.298  0.4120  0.6580 -0.2968
12697SOL    HW139532   0.713   6.966  12.308 -0.1204  0.9358 -0.2414
12697SOL    HW239533   0.850   7.030  12.304  0.2646  0.2309  1.0280
12698SOL     OW39534   3.225   1.697   5.727  0.2847 -0.3145  0.2156
12698SOL    HW139535   3.207   1.760   5.796 -1.1031 -0.0833 -0.3295
12698SOL    HW239536   3.320   1.683   5.731  0.4237  0.7866  1.2048
12699SOL     OW39537   4.827   1.698  11.390  0.1096 -0.4918  0.1926
12699SOL    HW139538   4.804   1.692  11.297 -0.4536 -3.0954  0.4258
12699SOL    HW239539   4.923   1.701  11.390  0.2051  4.7036 -0.5539
12700SOL     OW39540   3.514   0.892  11.564  0.6835  0.4013 -0.1746
12700SOL    HW139541   3.451   0.885  11.493 -0.1923 -1.0775  0.6894
12700SOL    HW239542   3.567   0.812  11.556 -0.5494 -0.6965  1.8023
12701SOL     OW39543   7.437   3.494   4.506 -0.5749  0.1651  0.1431
12701SOL    HW139544   7.487   3.531   4.578  2.4409 -1.0054 -1.1812
12701SOL    HW239545   7.414   3.406   4.535 -1.0251  0.3503  0.3623
12702SOL     OW39546   3.613   2.869   1.275 -0.0794  0.4290 -0.2132
12702SOL    HW139547   3.598   2.807   1.346  0.4303  0.5061 -0.0351
12702SOL    HW239548   3.707   2.863   1.257 -0.2785  0.0817 -1.1897
12703SOL     OW39549   6.315   0.934   2.011  0.0431 -0.1967  0.6583
12703SOL    HW139550   6.333   0.906   2.100  1.2160  0.9604  0.8233
12703SOL    HW239551   6.356   0.868   1.955  0.5761 -0.1624  1.0030
12704SOL     OW39552   4.862   6.990   4.936 -0.4369  0.1234  0.4741
12704SOL    HW139553   4.847   7.047   4.860 -0.7979  0.2360  0.6254
12704SOL    HW239554   4.956   6.996   4.953 -0.4386  0.5006  0.3526
12705SOL     OW39555   4.634   0.760  11.782 -0.0888 -0.9102 -0.5275
12705SOL    HW139556   4.716   0.809  11.783  0.2255 -1.4375 -0.2302
12705SOL    HW239557   4.573   0.813  11.834  0.4187 -1.1365  0.2966
12706SOL     OW39558   1.874   4.748   0.267 -0.3282  0.3345 -0.3857
12706SOL    HW139559   1.798   4.768   0.321  0.0202  0.6607 -0.0049
12706SOL    HW239560   1.934   4.821   0.282  0.2613 -0.1566 -0.3121
12707SOL     OW39561   0.237   1.012   1.000  0.1005  0.0515 -0.1816
12707SOL    HW139562   0.144   1.030   0.985  0.1977  0.3371 -0.4673
12707SOL    HW239563   0.239   0.959   1.079 -0.2262  0.9493  0.4425
12708SOL     OW39564   4.058   2.154   5.377  0.3192 -0.0255  0.0959
12708SOL    HW139565   4.017   2.146   5.463  0.7022  0.8165  0.3672
12708SOL    HW239566   4.021   2.082   5.326  0.5714 -0.9408  1.1510
12709SOL     OW39567   4.042   7.693   5.830  0.1273  0.4001 -0.2448
12709SOL    HW139568   3.981   7.625   5.801  0.6718 -0.5032  0.6866
12709SOL    HW239569   4.061   7.671   5.921 -1.2402  2.9535  0.7615
12710SOL     OW39570   3.458   6.331   6.544 -0.6312  0.2855 -0.7590
12710SOL    HW139571   3.465   6.245   6.585 -0.2903  0.5743 -0.1901
12710SOL    HW239572   3.417   6.386   6.611 -0.1683  0.7383 -0.8360
12711SOL     OW39573   7.342   0.647  12.098  0.0345 -0.0064 -0.4169
12711SOL    HW139574   7.281   0.576  12.079 -0.3866  0.2935 -0.1996
12711SOL    HW239575   7.386   0.664  12.015 -0.1135 -0.2859 -0.5535
12712SOL     OW39576   5.427   7.160   8.777  0.1298 -0.4997 -0.6246
12712SOL    HW139577   5.341   7.200   8.773 -0.4806 -1.3353  2.0228
12712SOL    HW239578   5.435   7.128   8.867  3.0291 -0.8547 -0.8887
12713SOL     OW39579   2.029   3.997   7.267  0.1090 -0.4649  0.0253
12713SOL    HW139580   2.010   3.909   7.298  1.3731 -1.2519 -1.3128
12713SOL    HW239581   1.998   3.999   7.177 -0.1092  0.5507  0.1025
12714SOL     OW39582   1.894   5.420   7.156 -0.5190 -0.0647  1.0679
12714SOL    HW139583   1.963   5.363   7.121 -0.2458  0.5253  0.6378
12714SOL    HW239584   1.889   5.396   7.249 -1.9089 -2.3207  0.4991
12715SOL     OW39585   1.771   1.810  11.129 -0.1510 -0.4842 -0.3068
12715SOL    HW139586   1.825   1.761  11.067 -2.4278 -1.5273 -1.5995
12715SOL    HW239587   1.782   1.764  11.212  2.5758  0.6450  0.0364
12716SOL     OW39588   7.940   2.253  11.046 -0.1509  0.3061  0.0624
12716SOL    HW139589   7.994   2.175  11.050 -0.4869  0.0484 -0.3447
12716SOL    HW239590   7.986   2.318  11.099 -0.1038 -0.3086  0.7819
12717SOL     OW39591   2.550   4.102   2.669 -0.0960 -0.1169  0.3126
12717SOL    HW139592   2.607   4.029   2.644 -1.6840 -1.7798  1.3343
12717SOL    HW239593   2.553   4.160   2.593  1.3846 -1.1050 -0.4517
12718SOL     OW39594   3.708   3.549  11.757  0.5399  0.4268  0.2045
12718SOL    HW139595   3.748   3.524  11.674  0.0187  1.7759 -0.4868
12718SOL    HW239596   3.634   3.489  11.767  1.3716 -0.5986  0.3742
12719SOL     OW39597   5.563   5.438   3.975  0.3523  0.0840  0.2115
12719SOL    HW139598   5.576   5.373   3.906 -0.7840 -0.4306  0.4570
12719SOL    HW239599   5.512   5.508   3.933  0.2127  0.0704  0.3555
12720SOL     OW39600   6.111   3.896  10.384 -0.4238 -0.6122  0.0927
12720SOL    HW139601   6.200   3.906  10.351 -0.2712 -0.6628  0.4862
12720SOL    HW239602   6.055   3.906  10.306 -0.0724 -0.6919 -0.1719
12721SOL     OW39603   1.209   2.075   8.613  0.0069 -0.2113 -0.1468
12721SOL    HW139604   1.280   2.010   8.616  0.1595 -0.1079  3.2277
12721SOL    HW239605   1.169   2.069   8.700 -3.4605  0.5391 -1.5541
12722SOL     OW39606   1.412   5.133  11.341 -0.6513 -0.6246 -0.3149
12722SOL    HW139607   1.388   5.040  11.347 -0.0033 -0.8938 -1.5661
12722SOL    HW239608   1.368   5.174  11.415 -1.5009 -1.8185 -0.1333
12723SOL     OW39609   5.723   7.478  10.112  0.1245 -0.1709 -1.2903
12723SOL    HW139610   5.669   7.423  10.168  2.2305  1.0603  2.3040
12723SOL    HW239611   5.783   7.418  10.068  1.4112 -1.0200  1.4135
12724SOL     OW39612   4.121   7.675   8.512 -0.4369 -0.5115  0.5623
12724SOL    HW139613   4.130   7.580   8.511 -1.0332 -0.6178 -2.4482
12724SOL    HW239614   4.194   7.707   8.459 -1.9965  0.4297 -1.1578
12725SOL     OW39615   2.096   7.326   8.306  0.7873 -0.1229 -0.0726
12725SOL    HW139616   2.163   7.269   8.268 -0.6817 -1.7394 -0.3776
12725SOL    HW239617   2.055   7.368   8.231  0.4533 -0.3077  0.0072
12726SOL     OW39618   0.454   0.342   0.660 -0.1038  0.6189  0.4057
12726SOL    HW139619   0.509   0.271   0.691  0.6787  1.0765  0.0891
12726SOL    HW239620   0.406   0.306   0.585 -1.5828 -0.3225  1.7357
12727SOL     OW39621   0.264   2.102   9.217 -0.0629 -0.3244  0.3730
12727SOL    HW139622   0.197   2.058   9.270 -1.0787  0.4930 -0.2011
12727SOL    HW239623   0.293   2.175   9.271 -1.7176  1.0294 -0.4625
12728SOL     OW39624   6.417   2.170   4.908  0.1815  0.2378  0.2061
12728SOL    HW139625   6.348   2.173   4.974  0.0247  1.3653  0.0107
12728SOL    HW239626   6.489   2.219   4.947  2.0067 -3.1627  1.5858
12729SOL     OW39627   7.390   1.975   4.386 -0.4188  0.1635 -0.3416
12729SOL    HW139628   7.381   2.012   4.298  0.2920 -0.8185 -0.8456
12729SOL    HW239629   7.357   1.886   4.378 -1.1887  0.3475  0.6183
12730SOL     OW39630   1.005   1.835   3.862 -0.5390 -0.1270  0.2900
12730SOL    HW139631   0.980   1.818   3.953  1.7419 -2.3714  0.6118
12730SOL    HW239632   1.006   1.749   3.821  1.7812  0.3977 -0.9248
12731SOL     OW39633   0.374   2.210   0.517 -0.5282 -0.1722 -0.2453
12731SOL    HW139634   0.375   2.293   0.469 -3.7908  2.4666  3.5150
12731SOL    HW239635   0.455   2.210   0.568 -0.1971  0.3952 -0.7601
12732SOL     OW39636   4.469   1.922   3.737 -0.6562  0.4182  0.0393
12732SOL    HW139637   4.424   1.859   3.792 -0.2039  0.4131  0.4050
12732SOL    HW239638   4.524   1.972   3.797 -0.9043  1.0718 -0.2621
12733SOL     OW39639   3.715   6.759   2.044  0.4434 -0.0155 -0.5068
12733SOL    HW139640   3.786   6.704   2.011  0.3440 -0.6567  0.3236
12733SOL    HW239641   3.706   6.828   1.978  2.0024  0.2183 -0.5145
12734SOL     OW39642   0.104   0.939   8.626 -0.3263  0.0006 -0.6219
12734SOL    HW139643   0.030   0.924   8.684  1.5355 -0.5869  1.7286
12734SOL    HW239644   0.112   1.035   8.623  0.6379  0.0498  1.6542
12735SOL     OW39645   4.860   6.789  12.222 -0.0138  0.2399 -0.4871
12735SOL    HW139646   4.800   6.834  12.282 -0.5546  1.6595 -1.9974
12735SOL    HW239647   4.875   6.853  12.153 -0.0319 -1.5977 -2.2639
12736SOL     OW39648   4.181   0.490   1.098 -0.1065  0.5843  0.0957
12736SOL    HW139649   4.235   0.526   1.169  0.5306  0.9823 -0.5847
12736SOL    HW239650   4.118   0.559   1.079 -1.9328 -0.4584  1.9531
12737SOL     OW39651   1.063   6.628  10.865 -0.1338  0.7340 -0.0141
12737SOL    HW139652   0.991   6.623  10.929 -1.2498 -0.0006 -1.2682
12737SOL    HW239653   1.025   6.671  10.789  0.6015 -0.0952 -0.8838
12738SOL     OW39654   2.374   3.637   2.511 -0.2536 -0.4840 -0.4751
12738SOL    HW139655   2.284   3.603   2.513 -0.1383 -0.7447  1.7140
12738SOL    HW239656   2.429   3.559   2.516  0.0401 -0.2066  1.0521
12739SOL     OW39657   5.132   1.940   5.378  0.6005 -0.1072  0.1085
12739SOL    HW139658   5.145   2.028   5.415 -0.7252  0.5524 -0.8964
12739SOL    HW239659   5.214   1.921   5.332 -0.3258  2.2639 -2.8316
12740SOL     OW39660   2.144   0.360   2.225 -0.2856 -0.6542  0.3483
12740SOL    HW139661   2.192   0.360   2.142 -1.0967  0.8774 -0.1708
12740SOL    HW239662   2.190   0.425   2.278 -0.6786 -0.4976  0.5044
12741SOL     OW39663   0.880   0.821   0.137 -0.5653  0.2632 -0.5205
12741SOL    HW139664   0.851   0.731   0.122  0.2235  0.0698 -0.9564
12741SOL    HW239665   0.940   0.839   0.065  2.1361 -0.1420  1.4579
12742SOL     OW39666   0.798   5.813  11.938 -0.1443  0.2218  0.8853
12742SOL    HW139667   0.797   5.892  11.992 -0.2704 -0.3633  1.7734
12742SOL    HW239668   0.756   5.838  11.856  0.4856  1.2665  0.8725
12743SOL     OW39669   3.311   6.771   0.025 -0.5652 -0.8011  0.2351
12743SOL    HW139670   3.265   6.697  -0.013 -1.4031  0.2748 -0.9635
12743SOL    HW239671   3.399   6.738   0.043 -0.8723 -2.0313 -0.4025
12744SOL     OW39672   1.723   6.511   4.521 -0.1050  0.5869  0.2132
12744SOL    HW139673   1.818   6.507   4.524 -0.0131  1.3782  3.6424
12744SOL    HW239674   1.702   6.545   4.434  2.5193 -2.0681 -1.6215
12745SOL     OW39675   5.843   6.929   4.341  0.6140 -0.2721 -0.6513
12745SOL    HW139676   5.758   6.890   4.319  0.3580 -0.8198  1.1372
12745SOL    HW239677   5.859   6.993   4.271 -0.3006 -1.5668 -2.1207
12746SOL     OW39678   5.300   1.236   1.136  0.4324  0.2616  0.0005
12746SOL    HW139679   5.373   1.266   1.190  0.4275 -1.2357  0.9083
12746SOL    HW239680   5.330   1.153   1.099 -0.1897  0.4602 -0.9847
12747SOL     OW39681   7.885   6.198   6.088  0.0026 -0.6669 -0.2674
12747SOL    HW139682   7.811   6.218   6.031 -0.1437  0.6264  0.3262
12747SOL    HW239683   7.850   6.205   6.176  0.7569 -0.3320  0.0126
12748SOL     OW39684   1.601   2.147  11.682 -0.8111  0.0326 -0.0150
12748SOL    HW139685   1.582   2.154  11.776 -0.8872  1.6303 -0.1205
12748SOL    HW239686   1.696   2.144  11.678 -0.8219 -2.4557  0.2108
12749SOL     OW39687   0.148   0.842   2.468  0.8398  0.5953 -0.1997
12749SOL    HW139688   0.155   0.932   2.436  0.5990  1.0199  0.8842
12749SOL    HW239689   0.177   0.847   2.559 -0.6496 -0.1112  0.3562
12750SOL     OW39690   2.448   6.695   1.997  0.0727  0.2581 -0.4975
12750SOL    HW139691   2.427   6.776   1.949  1.8124  2.3426  1.9742
12750SOL    HW239692   2.364   6.665   2.031 -0.4008  2.3269  0.3449
12751SOL     OW39693   5.720   1.690   6.058  0.7659 -0.0810 -0.2183
12751SOL    HW139694   5.725   1.646   6.143  0.8993  1.5209  0.6467
12751SOL    HW239695   5.811   1.717   6.040  0.5730  0.5309 -0.3213
12752SOL     OW39696   1.971   1.081   3.569 -0.2483 -0.5338 -0.1727
12752SOL    HW139697   2.025   1.158   3.550  0.3779 -0.6352  1.0774
12752SOL    HW239698   1.892   1.093   3.515  1.2105 -0.6467 -2.4379
12753SOL     OW39699   1.681   3.588   7.729  0.9571 -0.0467  0.0117
12753SOL    HW139700   1.771   3.619   7.732  0.6963  0.6594  1.0237
12753SOL    HW239701   1.634   3.653   7.677  0.7908  0.2478  0.5246
12754SOL     OW39702   5.088   4.472   1.194 -0.5040  0.6425 -0.3585
12754SOL    HW139703   5.024   4.530   1.154  1.2431  2.4480 -0.6937
12754SOL    HW239704   5.102   4.402   1.130 -0.1620  1.7163 -1.4893
12755SOL     OW39705   3.736   5.349   2.998 -0.5137 -0.3526  0.0779
12755SOL    HW139706   3.771   5.327   2.911 -0.7432 -0.5257  0.0301
12755SOL    HW239707   3.732   5.445   2.998 -2.4228 -0.3997 -0.8539
12756SOL     OW39708   3.371   6.219   3.668 -0.1532 -0.2349  1.1899
12756SOL    HW139709   3.459   6.244   3.697  0.4344 -2.0515  1.1074
12756SOL    HW239710   3.338   6.297   3.623  1.2938  0.5886  1.4664
12757SOL     OW39711   1.378   0.483   9.096 -0.1924  0.3143  0.4140
12757SOL    HW139712   1.319   0.430   9.044 -1.1096  0.4239  1.3025
12757SOL    HW239713   1.321   0.547   9.139  0.7366  1.2555  0.2945
12758SOL     OW39714   3.307   7.701   3.286 -0.1242  0.1251 -0.0871
12758SOL    HW139715   3.255   7.690   3.207  0.0457  3.6602 -0.8660
12758SOL    HW239716   3.291   7.791   3.313  3.6370  0.6689  1.0304
12759SOL     OW39717   6.404   5.117   8.429  0.1472 -0.1830  0.2773
12759SOL    HW139718   6.334   5.099   8.493 -2.0698  0.4611 -1.8062
12759SOL    HW239719   6.440   5.031   8.409 -2.5684 -1.1058 -1.1891
12760SOL     OW39720   4.891   1.942  11.798  0.4645 -0.1100  0.3791
12760SOL    HW139721   4.914   1.852  11.773 -1.5747 -0.1019 -1.7676
12760SOL    HW239722   4.806   1.934  11.842  0.0189  0.8104 -0.2854
12761SOL     OW39723   1.934   3.972   0.465  0.1401 -0.1477  0.4818
12761SOL    HW139724   1.892   3.968   0.551  0.1309  1.4077  0.5816
12761SOL    HW239725   2.025   3.949   0.482 -0.2947 -1.9381  0.5324
12762SOL     OW39726   1.301   1.680  10.010 -0.2286 -0.7717  0.2273
12762SOL    HW139727   1.258   1.644  10.087  1.7554 -3.1476  0.3495
12762SOL    HW239728   1.383   1.717  10.043 -0.0811 -0.3641 -0.5644
12763SOL     OW39729   6.330   2.136   3.499 -0.1054  0.2364  0.5012
12763SOL    HW139730   6.374   2.052   3.510 -0.6259 -0.0913  0.1453
12763SOL    HW239731   6.285   2.129   3.415 -0.5489  0.6933  0.6916
12764SOL     OW39732   0.658   1.935   2.586 -0.7027  0.2303 -0.1881
12764SOL    HW139733   0.741   1.893   2.564  0.0667  0.5674  1.7949
12764SOL    HW239734   0.592   1.866   2.574  0.0365 -0.4341 -0.5273
12765SOL     OW39735   4.225   2.102   9.066  0.7162  0.1620  0.3251
12765SOL    HW139736   4.149   2.155   9.088  0.1209  0.4639 -2.2037
12765SOL    HW239737   4.270   2.089   9.150 -0.8302  1.9538  1.5096
12766SOL     OW39738   5.461   7.216   2.846 -0.6562 -1.4271 -0.2044
12766SOL    HW139739   5.551   7.206   2.875 -0.7641  0.2401  0.8092
12766SOL    HW239740   5.413   7.146   2.891 -0.4119 -0.2965  1.9022
12767SOL     OW39741   2.729   0.643   8.280  0.3689 -0.5123 -0.0640
12767SOL    HW139742   2.692   0.561   8.312 -1.0241 -0.8698 -2.3434
12767SOL    HW239743   2.652   0.695   8.254  1.3225  0.6111 -0.7183
12768SOL     OW39744   5.124   1.949   9.608  0.0218 -0.0866  0.5252
12768SOL    HW139745   5.143   2.007   9.681 -0.5666  0.9190 -0.1016
12768SOL    HW239746   5.159   1.864   9.635  3.1534  1.0492  0.4623
12769SOL     OW39747   5.886   6.406   9.325  0.1122 -0.3741  0.5857
12769SOL    HW139748   5.941   6.442   9.255 -1.2461  1.5715  0.4467
12769SOL    HW239749   5.905   6.461   9.401 -0.1554 -0.9869  1.1017
12770SOL     OW39750   3.151   4.296   9.730  0.2523  0.7371  0.4645
12770SOL    HW139751   3.073   4.315   9.679 -0.3223  0.2230  1.1431
12770SOL    HW239752   3.223   4.329   9.676 -0.1689 -1.1918 -1.4539
12771SOL     OW39753   3.166   5.868   9.266  0.1608  0.1004  0.2552
12771SOL    HW139754   3.150   5.944   9.323 -0.1700 -0.6188  1.1479
12771SOL    HW239755   3.088   5.864   9.210  0.6243  0.9948 -0.4895
12772SOL     OW39756   1.410   3.202   4.447  0.3887  0.1312  0.0666
12772SOL    HW139757   1.346   3.232   4.512 -0.1177 -0.8409  0.0407
12772SOL    HW239758   1.357   3.162   4.378  1.0049 -0.2009 -0.2211
12773SOL     OW39759   3.404   2.223   5.973  0.7954  0.2821  0.4691
12773SOL    HW139760   3.311   2.207   5.988  0.5337  0.7317 -0.6369
12773SOL    HW239761   3.421   2.307   6.017  0.0633  1.5136 -1.4588
12774SOL     OW39762   7.558   7.623  10.872  0.3484 -0.1840 -0.0621
12774SOL    HW139763   7.643   7.638  10.830 -0.0289 -0.9589 -1.1522
12774SOL    HW239764   7.497   7.677  10.822 -0.2443 -1.7240 -1.1041
12775SOL     OW39765   7.127   7.799   9.379 -0.1334 -0.4200 -0.2977
12775SOL    HW139766   7.158   7.809   9.469 -0.2033  1.0740 -0.4088
12775SOL    HW239767   7.086   7.884   9.359  0.0178 -0.6836 -1.7827
12776SOL     OW39768   7.622   4.575   6.591 -0.0023 -0.2179  0.3341
12776SOL    HW139769   7.623   4.485   6.558 -0.4915 -0.7438  1.6731
12776SOL    HW239770   7.712   4.591   6.620 -0.1493 -0.6794  1.0807
12777SOL     OW39771   1.890   1.515   8.848 -0.1905  0.0895  0.1952
12777SOL    HW139772   1.939   1.558   8.919  2.4158 -0.4988 -1.1346
12777SOL    HW239773   1.854   1.587   8.796  0.5825  0.5922  0.3419
12778SOL     OW39774   4.815   5.635   0.559 -0.1784 -0.4444 -0.6225
12778SOL    HW139775   4.909   5.614   0.557  0.0829  0.2090  1.6781
12778SOL    HW239776   4.783   5.591   0.637 -1.2760  1.2288 -0.0845
12779SOL     OW39777   6.057   6.598   5.055  0.3967 -0.5826  0.4396
12779SOL    HW139778   5.992   6.536   5.087  0.3079 -1.7363 -1.8211
12779SOL    HW239779   6.006   6.676   5.031  0.2308 -0.4539  1.1728
12780SOL     OW39780   7.080   5.107   0.369  0.4007  0.2919  0.5850
12780SOL    HW139781   7.033   5.050   0.430 -0.1675  0.7478  0.5836
12780SOL    HW239782   7.170   5.107   0.401  0.4650 -0.7855  0.4448
12781SOL     OW39783   5.855   4.160   5.520 -0.2008 -0.0741  0.3038
12781SOL    HW139784   5.824   4.071   5.540  0.7693 -0.7654 -1.1087
12781SOL    HW239785   5.946   4.148   5.492  0.0351  1.4097  0.3655
12782SOL     OW39786   6.628   1.766   2.890 -0.2122 -0.1072  0.2264
12782SOL    HW139787   6.598   1.812   2.968 -1.3143 -0.3700 -0.0279
12782SOL    HW239788   6.641   1.835   2.825  1.2551  0.1785  0.7768
12783SOL     OW39789   7.479   3.902   7.805  0.0255 -0.1456  0.4454
12783SOL    HW139790   7.521   3.942   7.881 -0.3406 -0.3864  0.7712
12783SOL    HW239791   7.401   3.859   7.839 -0.0902 -0.3387 -0.0495
12784SOL     OW39792   2.050   7.525   9.385  0.2554 -0.6037  1.0684
12784SOL    HW139793   2.111   7.590   9.350  0.3972 -0.7665  1.0098
12784SOL    HW239794   2.084   7.441   9.353 -0.8267 -0.5887 -0.1604
12785SOL     OW39795   6.660   0.771   0.785  0.6808 -0.0963  0.0651
12785SOL    HW139796   6.645   0.863   0.807 -0.9679  0.1500 -1.8501
12785SOL    HW239797   6.585   0.725   0.822  0.3485 -0.3286 -0.8708
12786SOL     OW39798   1.437   0.701   6.087  0.1295  0.0198 -0.8073
12786SOL    HW139799   1.449   0.708   5.992  0.0925 -2.4341 -1.0765
12786SOL    HW239800   1.467   0.785   6.122 -1.1566  1.5195 -3.0795
12787SOL     OW39801   7.472   0.964   2.584 -0.2060  0.1106  0.1673
12787SOL    HW139802   7.514   0.955   2.498  1.0925 -0.4001  0.8307
12787SOL    HW239803   7.429   1.049   2.581 -1.0546 -0.3435 -1.3492
12788SOL     OW39804   2.756   3.292   5.434  0.2639 -0.5055  0.2838
12788SOL    HW139805   2.788   3.348   5.504 -1.2435 -0.5511  1.0319
12788SOL    HW239806   2.725   3.352   5.367  0.1360 -0.4587  0.3862
12789SOL     OW39807   3.174   1.754   8.476 -0.3640  0.2016  0.5327
12789SOL    HW139808   3.267   1.759   8.498  0.2586  1.2544 -1.9501
12789SOL    HW239809   3.142   1.842   8.491 -0.5795  0.2253 -0.0557
12790SOL     OW39810   3.673   5.220   2.506 -0.0987 -0.1973 -0.9375
12790SOL    HW139811   3.577   5.213   2.500 -0.3004 -1.0675  1.8839
12790SOL    HW239812   3.704   5.131   2.495  0.0894 -0.4355  1.1688
12791SOL     OW39813   7.134   5.459   7.956 -0.4629  0.1474 -0.1259
12791SOL    HW139814   7.069   5.525   7.981 -1.1886 -1.0339  1.2018
12791SOL    HW239815   7.212   5.510   7.934 -1.7377  1.5984 -1.6210
12792SOL     OW39816   1.781   1.825   0.942 -0.1921  0.4145 -0.2078
12792SOL    HW139817   1.799   1.731   0.944  1.5409  0.6242  3.7382
12792SOL    HW239818   1.867   1.866   0.934 -0.7468  1.6765  0.0051
12793SOL     OW39819   5.631   4.233   9.856 -0.3496 -0.0507  0.2505
12793SOL    HW139820   5.591   4.319   9.866 -0.2845  0.0108 -0.0202
12793SOL    HW239821   5.708   4.236   9.914  1.2492  1.0653 -1.8110
12794SOL     OW39822   5.076   5.188   5.404 -0.0917  0.0098  0.3925
12794SOL    HW139823   5.009   5.233   5.353  0.6459  1.0120  0.2768
12794SOL    HW239824   5.067   5.223   5.492  0.6573  0.6048  0.2433
12795SOL     OW39825   1.180   5.885   1.558  0.0746 -0.3292  0.1997
12795SOL    HW139826   1.192   5.905   1.465  1.0305 -0.2323  0.3357
12795SOL    HW239827   1.141   5.798   1.559  0.1044 -0.3515 -0.2961
12796SOL     OW39828   4.003   4.468   0.819  0.0350 -0.0460 -0.1619
12796SOL    HW139829   4.026   4.526   0.747  1.7850  0.2298  0.5748
12796SOL    HW239830   4.035   4.513   0.897 -0.7084 -0.9140  0.6662
12797SOL     OW39831   6.718   4.842   7.264 -0.4062  1.0831 -0.9786
12797SOL    HW139832   6.679   4.929   7.261 -1.1630  0.8666  0.8352
12797SOL    HW239833   6.741   4.822   7.173 -2.8771  1.9953 -1.8806
12798SOL     OW39834   6.704   6.904  10.215  0.0585  0.1645  0.3970
12798SOL    HW139835   6.759   6.979  10.195 -0.5325  0.9543  1.6267
12798SOL    HW239836   6.648   6.933  10.287 -0.2686 -1.4061  0.8240
12799SOL     OW39837   0.026   1.573  11.437 -0.2452 -0.1717 -0.1818
12799SOL    HW139838   0.056   1.576  11.346  1.4267  1.6809  0.3663
12799SOL    HW239839  -0.028   1.494  11.442  1.2872 -1.4383 -2.2647
12800SOL     OW39840   6.494   7.765   9.402 -0.0283  0.1370 -0.4268
12800SOL    HW139841   6.504   7.790   9.494  1.1399  0.1511 -0.5485
12800SOL    HW239842   6.413   7.713   9.401  0.3694 -0.5569  0.7572
12801SOL     OW39843   3.439   6.134   0.940 -0.2538 -0.3991 -0.0089
12801SOL    HW139844   3.384   6.063   0.909  1.6452 -0.4310 -3.8743
12801SOL    HW239845   3.527   6.096   0.944  0.0782  0.4421  3.0233
12802SOL     OW39846   4.981   1.633   2.568 -0.0438  0.6845  0.2037
12802SOL    HW139847   4.913   1.699   2.558 -0.5613  0.0774 -0.3202
12802SOL    HW239848   4.934   1.549   2.570  0.5420  0.3615  1.5343
12803SOL     OW39849   5.757   3.215   4.382  0.2379  0.8188 -0.8482
12803SOL    HW139850   5.718   3.200   4.296 -1.1404  0.0547 -0.1365
12803SOL    HW239851   5.832   3.155   4.385 -0.2233  0.2053 -1.2130
12804SOL     OW39852   3.704   6.359   2.216 -0.1613 -0.3879 -0.4078
12804SOL    HW139853   3.734   6.318   2.135  0.8117 -0.7142  0.1003
12804SOL    HW239854   3.784   6.376   2.266 -0.7678 -0.6019  0.6799
12805SOL     OW39855   2.930   3.270   4.791  0.8297  0.0783 -0.3719
12805SOL    HW139856   2.909   3.210   4.863 -0.4833  0.6160 -0.2818
12805SOL    HW239857   2.983   3.217   4.732 -1.7831 -1.8252 -1.2082
12806SOL     OW39858   2.843   7.270  11.238 -0.3973  0.9297 -0.1578
12806SOL    HW139859   2.787   7.214  11.183  0.9066 -2.6516  1.8118
12806SOL    HW239860   2.932   7.249  11.210  0.1943  0.6952  1.7794
12807SOL     OW39861   2.111   7.184   0.407 -0.3052  0.2917 -0.1447
12807SOL    HW139862   2.047   7.113   0.409 -1.1494  1.0538  0.4467
12807SOL    HW239863   2.060   7.263   0.423  1.0474  0.7049  2.8615
12808SOL     OW39864   2.324   5.435   0.156  0.1062  0.0009 -0.0749
12808SOL    HW139865   2.317   5.509   0.217 -0.9924  0.0355 -0.2213
12808SOL    HW239866   2.415   5.407   0.163  0.8618  2.0829 -0.8659
12809SOL     OW39867   7.014   0.977   7.738  0.1458 -0.1984  0.0699
12809SOL    HW139868   7.070   0.908   7.701 -0.0287  0.4404 -1.4160
12809SOL    HW239869   6.928   0.936   7.745  0.7171 -1.2129  2.4362
12810SOL     OW39870   7.181   3.487  12.300  0.0829 -0.2996  0.1774
12810SOL    HW139871   7.138   3.405  12.324 -0.2285  0.2710  1.6675
12810SOL    HW239872   7.199   3.530  12.383 -0.0120  1.2829 -0.5814
12811SOL     OW39873   6.740   5.387   2.042  0.2730  0.5122  0.2328
12811SOL    HW139874   6.773   5.469   2.078  1.5726 -0.0078  0.2522
12811SOL    HW239875   6.816   5.345   2.001 -0.5252 -0.3327 -0.4559
12812SOL     OW39876   5.824   7.042  10.396  0.1492  0.1946 -0.3215
12812SOL    HW139877   5.739   7.082  10.413  0.9074  2.1650 -0.8247
12812SOL    HW239878   5.804   6.956  10.361 -1.5917  0.1097  0.7587
12813SOL     OW39879   3.815   6.422   1.346 -0.1768 -0.5186 -0.0403
12813SOL    HW139880   3.772   6.502   1.314 -0.0896 -0.7211 -0.6888
12813SOL    HW239881   3.889   6.409   1.286 -0.1565 -1.0494  0.0930
12814SOL     OW39882   6.545   3.130   1.054  0.2639  0.0124  0.3183
12814SOL    HW139883   6.516   3.115   1.144 -1.0191 -1.7963 -0.3494
12814SOL    HW239884   6.608   3.060   1.037 -1.2619 -1.1238 -0.9069
12815SOL     OW39885   3.241   1.509  10.120 -0.1546 -0.2605 -0.7857
12815SOL    HW139886   3.240   1.546  10.208  1.4683  0.8440 -1.1907
12815SOL    HW239887   3.151   1.480  10.106 -0.0000 -2.7177  2.1209
12816SOL     OW39888   1.369   4.138   7.349 -0.0567 -0.1303  0.3098
12816SOL    HW139889   1.331   4.213   7.303 -1.7517 -1.4472 -0.5638
12816SOL    HW239890   1.351   4.064   7.291  0.7525 -1.3507  1.5765
12817SOL     OW39891   5.603   7.068  11.764  0.0963  0.0316 -0.0242
12817SOL    HW139892   5.519   7.035  11.732  1.0366 -1.6442 -0.9370
12817SOL    HW239893   5.589   7.162  11.778 -2.2354 -0.4057  1.0077
12818SOL     OW39894   0.567   5.684   6.400 -0.3185  0.0922 -0.0751
12818SOL    HW139895   0.565   5.609   6.459  0.9612  0.0883 -0.0204
12818SOL    HW239896   0.566   5.760   6.458  2.2142  0.0904  0.0551
12819SOL     OW39897   0.199   5.639   2.571  0.1633  0.6877 -0.3052
12819SOL    HW139898   0.120   5.611   2.616 -0.1121 -0.0607 -1.2145
12819SOL    HW239899   0.271   5.609   2.627 -0.1869  1.0767  0.3566
12820SOL     OW39900   7.404   3.189   7.669  0.2012  0.6758 -0.2133
12820SOL    HW139901   7.403   3.198   7.574  3.3348  1.5919 -0.3004
12820SOL    HW239902   7.451   3.108   7.685 -2.0154 -0.5167  0.6406
12821SOL     OW39903   4.014   0.815  10.375  0.2185 -0.4733  0.8218
12821SOL    HW139904   3.929   0.795  10.415 -0.9757 -1.0521 -1.8049
12821SOL    HW239905   3.993   0.871  10.301  1.9379 -1.6717 -0.6635
12822SOL     OW39906   7.268   4.780   7.884  0.9818  0.1852  0.2190
12822SOL    HW139907   7.245   4.804   7.794  1.7398  1.3454  0.3170
12822SOL    HW239908   7.307   4.692   7.875  2.9281  1.0893 -0.9032
12823SOL     OW39909   3.655   1.478   7.877 -0.3077 -0.1489  0.0142
12823SOL    HW139910   3.600   1.551   7.905 -0.3622  0.1864 -0.9261
12823SOL    HW239911   3.743   1.515   7.872 -0.3219 -0.1573 -0.3806
12824SOL     OW39912   2.958   3.860   8.891 -0.1903  0.5057 -0.1521
12824SOL    HW139913   2.955   3.953   8.913  0.9487  0.4110  0.4815
12824SOL    HW239914   3.016   3.855   8.816 -0.4124  0.3220 -0.3149
12825SOL     OW39915   6.871   7.380   2.070  0.0400  0.2130  0.0452
12825SOL    HW139916   6.820   7.407   2.146 -0.0548 -0.2867  0.1625
12825SOL    HW239917   6.810   7.383   1.997 -0.0003  0.2105  0.0785
12826SOL     OW39918   1.861   2.190   8.909  0.1358 -0.1189 -0.1533
12826SOL    HW139919   1.779   2.154   8.941 -0.1595  2.1442  2.0020
12826SOL    HW239920   1.893   2.126   8.846 -1.5953 -2.7208  1.4103
12827SOL     OW39921   0.706   4.521   4.890 -0.0178  0.3832 -0.2589
12827SOL    HW139922   0.694   4.456   4.820 -1.0417  1.3205 -0.9947
12827SOL    HW239923   0.662   4.483   4.966  1.6848 -0.9565  0.1322
12828SOL     OW39924   5.114   3.887   3.701 -0.0361 -0.0358  0.3205
12828SOL    HW139925   5.177   3.839   3.755  1.6432  0.1032 -1.4170
12828SOL    HW239926   5.099   3.968   3.749  1.1642 -0.0581  0.7761
12829SOL     OW39927   5.433   0.219   1.728 -0.3567  0.6680 -0.0828
12829SOL    HW139928   5.516   0.264   1.707 -0.7173  0.9109 -1.0200
12829SOL    HW239929   5.432   0.143   1.671 -0.6098  0.4636  0.1963
12830SOL     OW39930   7.721   0.236  12.206 -0.8795 -0.4607 -0.5939
12830SOL    HW139931   7.705   0.300  12.137  1.2147  0.0320 -0.7064
12830SOL    HW239932   7.742   0.155  12.160  1.5420  0.1252 -0.6492
12831SOL     OW39933   0.786   5.024   1.621 -0.3802  0.3182  0.2787
12831SOL    HW139934   0.785   5.045   1.528  0.7301 -1.6444 -0.2382
12831SOL    HW239935   0.694   5.015   1.645 -0.6693  0.5094 -0.7147
12832SOL     OW39936   0.255   3.452   1.220 -0.1309 -0.2135  0.3282
12832SOL    HW139937   0.264   3.383   1.286  2.4791  0.5172  0.8325
12832SOL    HW239938   0.313   3.424   1.149  1.3505  1.6268  0.7483
12833SOL     OW39939   0.451   2.846   9.958 -0.1657  0.0504 -1.0795
12833SOL    HW139940   0.439   2.905  10.032 -3.4848 -1.7031  0.0194
12833SOL    HW239941   0.541   2.815   9.966 -0.1940  0.4498  1.8428
12834SOL     OW39942   3.404   7.619   0.079 -0.9354  0.1009 -0.4837
12834SOL    HW139943   3.347   7.583   0.011  0.5706 -2.3643 -0.5869
12834SOL    HW239944   3.457   7.685   0.033 -0.8364 -0.6079 -1.4203
12835SOL     OW39945   5.842   4.227  10.942  0.1184 -0.6593  0.2691
12835SOL    HW139946   5.775   4.288  10.975 -0.5621  0.0192 -2.1691
12835SOL    HW239947   5.800   4.141  10.944 -0.5581 -0.3522 -0.5044
12836SOL     OW39948   3.500   4.436   2.568 -0.3078  0.5219  0.0126
12836SOL    HW139949   3.447   4.389   2.504  1.7308 -1.9294 -0.0335
12836SOL    HW239950   3.572   4.473   2.516 -0.3635  1.2925  0.4696
12837SOL     OW39951   7.711   5.439   9.827 -0.2030 -0.1251  0.1847
12837SOL    HW139952   7.704   5.499   9.901  0.1717  1.6717 -1.1792
12837SOL    HW239953   7.804   5.439   9.805 -0.3824 -0.2743 -0.5816
12838SOL     OW39954   3.752   2.077   6.531  0.0114 -0.3284  0.0882
12838SOL    HW139955   3.847   2.067   6.528 -0.1146 -1.3336 -1.1475
12838SOL    HW239956   3.726   2.043   6.617  0.4880 -2.9655 -0.7263
12839SOL     OW39957   3.612   5.689   9.310  0.0663 -0.1866 -0.4580
12839SOL    HW139958   3.593   5.670   9.402  0.2430  0.0241 -0.3802
12839SOL    HW239959   3.547   5.754   9.285 -1.4165 -1.8095 -1.0975
12840SOL     OW39960   1.767   6.230   5.045  0.3213  0.1064 -0.0226
12840SOL    HW139961   1.847   6.177   5.038 -0.1211 -0.7195  0.7679
12840SOL    HW239962   1.707   6.190   4.983  0.5769  0.8560 -0.7649
12841SOL     OW39963   4.176   4.685   8.844 -0.2043  0.2506  0.5087
12841SOL    HW139964   4.160   4.768   8.800  0.1360  1.1152  1.9607
12841SOL    HW239965   4.089   4.651   8.865 -0.3546  0.0396 -0.4014
12842SOL     OW39966   4.888   3.184   0.969  0.1944  0.8519 -0.2461
12842SOL    HW139967   4.850   3.169   0.883 -0.3718 -1.3631  0.3311
12842SOL    HW239968   4.831   3.249   1.010  0.4309  1.8809 -1.4670
12843SOL     OW39969   0.103   1.893   1.053 -0.0526 -0.2237  0.2470
12843SOL    HW139970   0.040   1.903   1.124  0.0927  0.2935  0.3126
12843SOL    HW239971   0.154   1.974   1.055 -0.3640  0.0120 -0.7570
12844SOL     OW39972   6.292   3.548   6.659  0.3808 -0.0501 -0.3569
12844SOL    HW139973   6.265   3.480   6.597  0.3597 -1.1007  0.7649
12844SOL    HW239974   6.263   3.630   6.619  1.6515 -0.5390 -2.4228
12845SOL     OW39975   3.605   0.524   5.626  0.6115 -0.6305  0.1630
12845SOL    HW139976   3.598   0.476   5.709 -1.9956 -3.0435 -1.2716
12845SOL    HW239977   3.672   0.477   5.577  1.8044  0.4989  0.6588
12846SOL     OW39978   0.341   1.278   4.116 -0.0006  0.2333 -0.2602
12846SOL    HW139979   0.349   1.363   4.161  0.7954  0.1043 -0.1462
12846SOL    HW239980   0.297   1.222   4.179  0.7979  0.1514  0.2351
12847SOL     OW39981   2.560   7.115   4.110  0.3351 -0.2976 -0.1287
12847SOL    HW139982   2.502   7.127   4.035  0.7616 -0.8666 -0.5527
12847SOL    HW239983   2.531   7.033   4.150  0.5223 -0.3230 -0.0450
12848SOL     OW39984   3.091   7.203   6.820  0.3093 -0.2408 -0.0873
12848SOL    HW139985   3.089   7.119   6.774  0.1162  0.3655 -1.2284
12848SOL    HW239986   3.001   7.235   6.816  0.4482  0.1736  0.0526
12849SOL     OW39987   1.569   6.978   6.217  0.0240 -0.0334  0.1013
12849SOL    HW139988   1.609   7.046   6.164 -0.5715  1.4396  1.4763
12849SOL    HW239989   1.607   6.990   6.304  0.2495 -1.7713  0.2947
12850SOL     OW39990   6.216   7.176   5.870 -0.0842 -0.0700 -0.3414
12850SOL    HW139991   6.225   7.084   5.846  0.3379 -0.0750 -0.1669
12850SOL    HW239992   6.123   7.186   5.893  0.0611 -0.6767  0.5706
12851SOL     OW39993   6.735   4.587  12.415  0.0467  0.3450  0.1269
12851SOL    HW139994   6.669   4.635  12.466 -2.2157 -0.9256 -1.4176
12851SOL    HW239995   6.718   4.612  12.324  1.9052  0.1376 -0.3234
12852SOL     OW39996   5.184   7.237   0.926 -0.1887 -1.0452 -0.3785
12852SOL    HW139997   5.116   7.187   0.970 -1.3316  0.7779  0.0590
12852SOL    HW239998   5.148   7.256   0.839  0.2646 -1.0644 -0.5724
12853SOL     OW39999   6.105   3.427   8.214 -0.3625 -0.1232  0.5083
12853SOL    HW140000   6.110   3.331   8.211 -3.3163 -0.3719 -0.3072
12853SOL    HW240001   6.161   3.457   8.143 -2.3315 -1.5593 -1.8459
12854SOL     OW40002   3.003   3.408   0.244 -0.6754  0.9608 -0.3526
12854SOL    HW140003   2.985   3.470   0.315 -0.5164  1.1098 -0.4428
12854SOL    HW240004   3.098   3.410   0.234 -0.6256  0.3891 -0.0719
12855SOL     OW40005   1.507   6.519   9.940  0.2570 -0.1982 -0.8199
12855SOL    HW140006   1.469   6.448   9.889 -0.1397 -0.7964  0.2980
12855SOL    HW240007   1.470   6.510  10.027  1.7017  0.1964 -0.1291
12856SOL     OW40008   5.769   2.667   4.430 -0.2221 -0.1173  0.0062
12856SOL    HW140009   5.812   2.597   4.479 -2.5757 -0.6179  1.5337
12856SOL    HW240010   5.752   2.630   4.344 -0.0187 -0.8756  0.2861
12857SOL     OW40011   4.790   0.768  11.504 -0.1265 -0.0213  0.2365
12857SOL    HW140012   4.855   0.711  11.463  1.6915  1.6343  0.6820
12857SOL    HW240013   4.805   0.759  11.598 -2.4749 -1.7218  0.5487
12858SOL     OW40014   5.508   5.076   9.573  0.3535 -0.1199 -0.0930
12858SOL    HW140015   5.486   5.009   9.509  1.4192 -1.5687  0.9870
12858SOL    HW240016   5.600   5.097   9.555  1.0179 -1.3482  1.5671
12859SOL     OW40017   3.314   3.352   4.635  0.0158 -0.2837 -0.0404
12859SOL    HW140018   3.251   3.282   4.618 -0.9309  0.9902 -2.2605
12859SOL    HW240019   3.378   3.344   4.564 -0.0933  1.0650 -0.3045
12860SOL     OW40020   2.097   5.847   8.536  0.4672 -0.6397 -0.7476
12860SOL    HW140021   2.163   5.778   8.543  2.3227  1.0394 -0.8299
12860SOL    HW240022   2.094   5.886   8.624 -1.7720 -1.8078 -0.2372
12861SOL     OW40023   6.149   4.216  11.800  0.2696 -0.4549  0.2129
12861SOL    HW140024   6.129   4.164  11.722 -0.7594 -1.4692  1.1198
12861SOL    HW240025   6.240   4.243  11.787 -0.6241  1.7399 -2.6033
12862SOL     OW40026   7.068   3.245  11.286  0.0916  0.0606 -0.5018
12862SOL    HW140027   7.026   3.162  11.309  1.8830 -1.0934 -1.1975
12862SOL    HW240028   7.052   3.255  11.192 -0.0602  0.4906 -0.4350
12863SOL     OW40029   3.805   1.229   3.675 -0.3581 -0.2109 -0.1300
12863SOL    HW140030   3.716   1.248   3.645 -0.3132 -0.8135 -0.6769
12863SOL    HW240031   3.862   1.282   3.619 -0.3973  0.6156  0.6053
12864SOL     OW40032   4.964   0.119   5.688 -0.1498 -0.1157  0.0540
12864SOL    HW140033   4.910   0.062   5.633 -0.8083  0.2410  0.3208
12864SOL    HW240034   5.037   0.064   5.714 -1.8431 -1.5810  2.0910
12865SOL     OW40035   2.326   5.677   2.020  0.4222  0.1136  0.1473
12865SOL    HW140036   2.367   5.692   1.935 -0.1582 -1.1339 -0.3891
12865SOL    HW240037   2.321   5.581   2.027  0.6357  0.1897  1.6766
12866SOL     OW40038   1.359   5.230  11.773  0.2134  0.2304 -0.4419
12866SOL    HW140039   1.323   5.153  11.817 -0.5810  1.0832  0.4740
12866SOL    HW240040   1.334   5.219  11.681  2.0433 -1.6684 -0.7818
12867SOL     OW40041   4.723   7.342   7.079 -0.2264  0.3515  0.4797
12867SOL    HW140042   4.804   7.355   7.128  1.0343 -1.4312 -0.9980
12867SOL    HW240043   4.712   7.422   7.029  1.2476  0.2253 -0.1093
12868SOL     OW40044   0.743   0.068   1.656  0.0608  0.3101  0.8959
12868SOL    HW140045   0.720   0.145   1.603 -1.6450 -0.6112  0.1815
12868SOL    HW240046   0.794   0.013   1.597 -0.9097 -0.2277  0.5350
12869SOL     OW40047   2.525   7.313   6.608 -0.0705 -0.0531 -0.3762
12869SOL    HW140048   2.435   7.344   6.596  0.3441  1.1022 -0.6545
12869SOL    HW240049   2.552   7.285   6.520 -0.1750 -0.4661 -0.2795
12870SOL     OW40050   0.410   5.260  11.837  0.0436 -0.6025  0.0171
12870SOL    HW140051   0.461   5.214  11.904  0.2051 -0.8311 -0.2611
12870SOL    HW240052   0.323   5.220  11.843 -0.2181  0.0592  0.7599
12871SOL     OW40053   7.818   3.484   8.367  0.1066  0.2850  0.3526
12871SOL    HW140054   7.861   3.486   8.453  2.2989 -1.2314 -0.6108
12871SOL    HW240055   7.740   3.538   8.378  1.3395  1.7654  2.7394
12872SOL     OW40056   7.135   5.156   7.964 -0.4288  0.0192 -0.0731
12872SOL    HW140057   7.166   5.246   7.964  0.4535 -0.2592  0.8955
12872SOL    HW240058   7.045   5.161   7.996 -0.5661  0.5990 -0.5384
12873SOL     OW40059   1.370   2.774   0.381 -0.1695  0.4523  0.2896
12873SOL    HW140060   1.351   2.746   0.291 -0.0396  0.7230  0.1769
12873SOL    HW240061   1.396   2.694   0.426 -1.4916  0.0830  0.4281
12874SOL     OW40062   4.762   0.164   6.029 -0.6552 -0.7566  0.6741
12874SOL    HW140063   4.800   0.092   6.081  1.1626 -0.7724 -0.5876
12874SOL    HW240064   4.776   0.242   6.083  0.5472 -0.8719  0.5492
12875SOL     OW40065   0.064   3.786   6.770  0.0550 -0.3643  0.5292
12875SOL    HW140066   0.091   3.758   6.683 -1.3509  0.1990 -0.1180
12875SOL    HW240067  -0.014   3.840   6.755  0.9250  1.4242  1.9639
12876SOL     OW40068   5.901   4.356   8.904 -0.2747 -0.1626  0.1605
12876SOL    HW140069   5.873   4.385   8.991 -1.7027 -2.6393  0.6088
12876SOL    HW240070   5.920   4.263   8.915 -0.5586 -0.5576 -2.2016
12877SOL     OW40071   3.851   2.289   6.258  0.0442  0.3232 -0.4561
12877SOL    HW140072   3.819   2.379   6.264  2.0687  1.1354 -1.1479
12877SOL    HW240073   3.815   2.246   6.335 -0.5224  1.8592  0.1770
12878SOL     OW40074   7.674   3.942   7.345  0.1149 -0.4947  0.9525
12878SOL    HW140075   7.740   3.915   7.410 -0.0906 -0.0369  1.3550
12878SOL    HW240076   7.591   3.917   7.384 -0.1860  1.7321  1.8824
12879SOL     OW40077   0.240   3.210   6.001 -0.1610  0.4954  0.1869
12879SOL    HW140078   0.264   3.159   6.078 -1.6352  0.3949  0.6040
12879SOL    HW240079   0.221   3.144   5.934 -0.6858  0.5372  0.2958
12880SOL     OW40080   6.986   3.611   9.470 -0.8137 -0.1693  0.2626
12880SOL    HW140081   6.976   3.521   9.439 -0.0261 -0.6839  1.4441
12880SOL    HW240082   7.066   3.610   9.522 -0.8254  1.2069  0.3443
12881SOL     OW40083   6.965   4.755   2.437 -0.3280 -0.0305  0.1785
12881SOL    HW140084   7.038   4.713   2.392  1.5688  2.4948  0.6598
12881SOL    HW240085   6.936   4.823   2.377 -1.3256 -0.0753  0.6022
12882SOL     OW40086   4.679   2.807   7.807  0.3311 -0.3058  0.3388
12882SOL    HW140087   4.584   2.794   7.814  0.3819 -0.0019  1.7672
12882SOL    HW240088   4.702   2.766   7.723 -0.9817 -0.7994  0.1914
12883SOL     OW40089   4.491   6.722   4.992  0.1724  0.1936 -0.1563
12883SOL    HW140090   4.473   6.678   4.910 -0.0153 -0.8678  0.4361
12883SOL    HW240091   4.586   6.714   5.003 -0.0051 -1.2106  0.5575
12884SOL     OW40092   3.308   3.692   1.144  0.5895 -0.1125 -0.5564
12884SOL    HW140093   3.286   3.775   1.103 -0.8416  0.1604  0.6801
12884SOL    HW240094   3.379   3.712   1.205 -0.1795  0.3645  0.2062
12885SOL     OW40095   2.396   6.037  11.452  0.0427 -0.3466 -0.0800
12885SOL    HW140096   2.303   6.056  11.443  0.0548 -0.8055 -1.2317
12885SOL    HW240097   2.427   6.104  11.513 -0.1078  2.9426 -3.2410
12886SOL     OW40098   0.463   4.594   4.714  0.1727  0.0738  0.4254
12886SOL    HW140099   0.520   4.554   4.779  2.2409  1.0090 -0.7234
12886SOL    HW240100   0.430   4.520   4.662  0.3708 -0.4819  1.0805
12887SOL     OW40101   2.632   1.732   2.097 -0.0273  0.3696  0.0824
12887SOL    HW140102   2.647   1.815   2.142 -1.3849 -0.3558  1.9910
12887SOL    HW240103   2.581   1.755   2.019  1.4706  1.5308 -0.6065
12888SOL     OW40104   3.262   6.008   8.172  0.0804  0.2773 -0.0518
12888SOL    HW140105   3.213   6.012   8.090  0.4828  0.5496 -0.2871
12888SOL    HW240106   3.245   6.092   8.214  1.5827  1.0395 -0.8788
12889SOL     OW40107   2.865   2.418   1.714  0.0060  0.2420 -0.0597
12889SOL    HW140108   2.852   2.465   1.631 -0.2478 -0.2947 -0.3312
12889SOL    HW240109   2.834   2.329   1.696 -1.0117  0.3833  0.9242
12890SOL     OW40110   4.729   1.638  10.662 -0.7672  0.3338  0.0678
12890SOL    HW140111   4.739   1.698  10.737 -1.0781  1.9941 -1.1567
12890SOL    HW240112   4.636   1.616  10.661 -0.6853 -0.0458  0.4106
12891SOL     OW40113   4.365   7.251   7.521  0.0970  0.3070 -0.0039
12891SOL    HW140114   4.383   7.306   7.597 -0.2814  1.0325 -0.4264
12891SOL    HW240115   4.392   7.304   7.446 -2.5868  1.0236 -0.6024
12892SOL     OW40116   7.545   3.336   5.141 -0.7183  0.5243 -0.5234
12892SOL    HW140117   7.569   3.325   5.049  1.7734  2.1357 -0.1656
12892SOL    HW240118   7.449   3.341   5.140 -0.7259  2.0665 -3.2740
12893SOL     OW40119   0.113   2.836   4.822 -0.3738  0.4640  0.1844
12893SOL    HW140120   0.203   2.853   4.851  0.4270 -1.8168 -0.7667
12893SOL    HW240121   0.066   2.812   4.901  0.3094 -0.0465  0.4380
12894SOL     OW40122   0.181   7.313  12.191  0.7429  0.2452 -0.0668
12894SOL    HW140123   0.161   7.407  12.188  0.3307  0.1320 -1.4703
12894SOL    HW240124   0.154   7.286  12.279 -1.9190  0.8683 -0.5808
12895SOL     OW40125   5.595   1.824   3.237 -0.4205 -0.2411  0.8135
12895SOL    HW140126   5.599   1.746   3.183  1.6208  0.4669 -0.1414
12895SOL    HW240127   5.614   1.793   3.326  2.3724 -0.6351  0.1613
12896SOL     OW40128   1.111   1.594   1.112  0.7176 -0.2419 -0.1242
12896SOL    HW140129   1.142   1.511   1.150 -2.5164 -0.9305  1.3188
12896SOL    HW240130   1.109   1.654   1.187 -2.4804 -0.6324  0.2305
12897SOL     OW40131   6.901   5.855  10.558  0.4174  0.6716  0.1083
12897SOL    HW140132   6.970   5.899  10.608 -0.9332  0.0112  2.7472
12897SOL    HW240133   6.846   5.814  10.625 -1.5840 -0.2343 -1.9719
12898SOL     OW40134   5.486   1.699   5.432  0.1295 -0.6631 -0.4228
12898SOL    HW140135   5.427   1.714   5.358 -0.4755 -0.9099  0.0052
12898SOL    HW240136   5.554   1.642   5.397  0.5906  0.2919 -1.1499
12899SOL     OW40137   5.586   0.453   6.398  0.4928 -0.0411 -1.0301
12899SOL    HW140138   5.541   0.377   6.362  0.9435 -1.0572  0.4616
12899SOL    HW240139   5.529   0.527   6.378 -0.2442 -0.8346 -1.9761
12900SOL     OW40140   0.555   2.140   3.721  0.3543  0.6436 -0.6963
12900SOL    HW140141   0.462   2.123   3.735  0.3158  0.4879 -1.1388
12900SOL    HW240142   0.598   2.100   3.797 -0.1608  3.3715  1.1689
12901SOL     OW40143   5.121   2.853   9.533 -0.4465  0.7897  0.2379
12901SOL    HW140144   5.153   2.868   9.621  0.4197 -2.2646  0.5667
12901SOL    HW240145   5.193   2.879   9.476  0.5794 -0.9520  0.6911
12902SOL     OW40146   4.254   1.314   3.780 -0.0372  0.5543  0.4223
12902SOL    HW140147   4.346   1.314   3.806  0.3703  1.1492 -0.9413
12902SOL    HW240148   4.253   1.266   3.697 -0.6899  1.9015 -0.3849
12903SOL     OW40149   1.468   6.435  12.086 -0.5253 -0.4028  0.9105
12903SOL    HW140150   1.398   6.490  12.052  0.3470  0.1426 -0.0574
12903SOL    HW240151   1.533   6.434  12.016 -0.0158 -1.7364  1.3770
12904SOL     OW40152   1.262   1.102   6.237 -0.2728  0.4439 -0.5569
12904SOL    HW140153   1.219   1.018   6.223 -1.0729  0.9658 -1.3244
12904SOL    HW240154   1.190   1.165   6.242  0.3270  1.1017 -0.1690
12905SOL     OW40155   7.617   6.002   2.971 -0.3356 -0.4784 -0.1859
12905SOL    HW140156   7.616   6.098   2.967 -1.1088 -0.3060  2.3678
12905SOL    HW240157   7.656   5.975   2.889  1.6439  2.0952 -0.2094
12906SOL     OW40158   1.120   7.349   7.761 -0.4925  0.1417  0.0435
12906SOL    HW140159   1.133   7.372   7.669  0.3177 -0.4509 -0.0016
12906SOL    HW240160   1.207   7.322   7.791 -0.7959  0.1314  0.9246
12907SOL     OW40161   2.221   4.986   4.312  0.2651  0.1823  0.4919
12907SOL    HW140162   2.214   5.057   4.249  0.9771 -1.2759 -1.3088
12907SOL    HW240163   2.156   4.922   4.283  0.1710 -0.2569  1.6250
12908SOL     OW40164   6.020   5.642   6.182  0.5057  0.1237  0.7744
12908SOL    HW140165   6.088   5.700   6.146  2.0209 -1.1252  1.4770
12908SOL    HW240166   6.008   5.575   6.114 -1.2244  1.1772 -0.0263
12909SOL     OW40167   4.077   1.548   5.065  0.2013 -0.2959  0.2452
12909SOL    HW140168   4.008   1.536   5.001  1.0696 -0.6488 -0.6440
12909SOL    HW240169   4.032   1.546   5.150 -0.6446 -2.6495 -0.1799
12910SOL     OW40170   2.425   4.563  12.387  0.0896 -0.0978 -0.0117
12910SOL    HW140171   2.403   4.633  12.449  1.2939  0.3560 -0.0792
12910SOL    HW240172   2.481   4.606  12.322  3.0179 -1.6333  1.3245
12911SOL     OW40173   5.579   0.507   1.345 -0.1074  0.4758 -0.3878
12911SOL    HW140174   5.497   0.542   1.382 -0.7665 -1.4756  0.0786
12911SOL    HW240175   5.556   0.480   1.256 -0.3416 -1.2177  0.1517
12912SOL     OW40176   2.131   4.445   7.830 -1.3356  0.0521 -0.0707
12912SOL    HW140177   2.193   4.386   7.873  0.8589  1.4865 -1.0347
12912SOL    HW240178   2.148   4.433   7.736 -1.9662  1.0405 -0.3303
12913SOL     OW40179   5.920   6.638  11.335  0.1915  0.0850 -0.3343
12913SOL    HW140180   5.829   6.610  11.331  0.0736  0.5930 -1.7209
12913SOL    HW240181   5.970   6.556  11.333 -0.2115 -0.3103  2.4082
12914SOL     OW40182   3.264   2.023   0.534  0.1614  0.6703 -0.3762
12914SOL    HW140183   3.347   1.976   0.523  0.2349  0.6748  0.1139
12914SOL    HW240184   3.287   2.115   0.521 -0.1958  0.5139 -2.4947
12915SOL     OW40185   6.877   1.427   4.446 -0.0619 -0.4486 -0.2545
12915SOL    HW140186   6.877   1.488   4.371 -1.8049  0.2957  0.2963
12915SOL    HW240187   6.969   1.421   4.472  0.0921  3.2130  0.6167
12916SOL     OW40188   5.997   2.623  11.804  0.1096 -0.3607  0.5399
12916SOL    HW140189   5.949   2.543  11.780 -0.1984 -0.0191 -0.0039
12916SOL    HW240190   5.933   2.693  11.793 -0.0647 -0.1757  2.4204
12917SOL     OW40191   5.718   7.430   3.552 -0.3762  0.5625 -0.3447
12917SOL    HW140192   5.791   7.441   3.490  0.5960  1.3975  0.8993
12917SOL    HW240193   5.736   7.346   3.594 -1.0581 -0.0239 -1.1811
12918SOL     OW40194   7.229   7.496   5.434 -0.3831 -0.1500  0.3135
12918SOL    HW140195   7.239   7.407   5.469  2.3338 -0.2387 -0.4359
12918SOL    HW240196   7.297   7.547   5.479 -0.7855  1.1476 -0.4938
12919SOL     OW40197   1.284   6.800  12.237  0.0710  0.9187  0.3569
12919SOL    HW140198   1.290   6.744  12.315 -0.7653 -1.0262 -0.8864
12919SOL    HW240199   1.281   6.889  12.271 -0.6713  0.1181  2.5693
12920SOL     OW40200   5.706   0.588   6.043 -0.0576  0.0570  0.6449
12920SOL    HW140201   5.802   0.583   6.044 -0.0167  0.2101 -0.8586
12920SOL    HW240202   5.685   0.644   6.118  1.0712  0.5368  0.6286
12921SOL     OW40203   7.890   5.118   3.704 -0.6704  0.1734 -0.4661
12921SOL    HW140204   7.903   5.105   3.798 -0.6145 -0.7604 -0.5978
12921SOL    HW240205   7.933   5.202   3.686 -1.3458  0.7528  0.4741
12922SOL     OW40206   7.476   6.540   4.696  0.1957  0.4070  0.8827
12922SOL    HW140207   7.493   6.448   4.677 -0.3256  0.2038  1.3855
12922SOL    HW240208   7.392   6.558   4.654 -0.4438  0.2430  2.0767
12923SOL     OW40209   7.036   2.909   2.350 -0.5306 -0.2403  0.5370
12923SOL    HW140210   7.058   2.921   2.442 -0.4797 -0.1925  0.5185
12923SOL    HW240211   6.954   2.956   2.339 -0.2955  0.1529  0.4482
12924SOL     OW40212   1.425   3.598   9.997  0.0520  0.6148  0.7965
12924SOL    HW140213   1.341   3.614  10.040 -1.0841  1.7744 -1.6720
12924SOL    HW240214   1.410   3.521   9.942  0.7704  0.4937  0.7584
12925SOL     OW40215   2.904   1.029   5.677  0.0414  0.1583  0.2462
12925SOL    HW140216   2.815   1.009   5.707 -0.5414  2.0640 -0.0744
12925SOL    HW240217   2.940   1.085   5.745  1.5703 -1.6933  1.0591
12926SOL     OW40218   0.455   7.494   6.904  0.3276  0.1334  0.0748
12926SOL    HW140219   0.428   7.557   6.837  1.8657  0.9315  0.1389
12926SOL    HW240220   0.491   7.421   6.854 -0.5462 -0.2581  0.0109
12927SOL     OW40221   2.650   6.029   7.344 -0.4085 -0.8283  0.3060
12927SOL    HW140222   2.569   5.990   7.378 -1.1615 -0.4282 -0.9463
12927SOL    HW240223   2.683   6.082   7.416 -2.0251  0.1077  0.4146
12928SOL     OW40224   5.223   1.593   3.221 -0.3876  0.0653  0.3439
12928SOL    HW140225   5.128   1.596   3.228 -0.5471 -1.4775 -0.5413
12928SOL    HW240226   5.251   1.532   3.290  0.0789  1.2826  1.2610
12929SOL     OW40227   7.923   1.750   1.491  0.5458 -0.0325  0.2338
12929SOL    HW140228   7.916   1.682   1.558 -0.6089 -0.4657 -0.2961
12929SOL    HW240229   7.972   1.820   1.533  0.8081 -0.7432  1.1546
12930SOL     OW40230   7.814   5.318   3.238 -0.6097 -0.0924 -0.1128
12930SOL    HW140231   7.857   5.268   3.308  0.5251 -0.6963 -1.1864
12930SOL    HW240232   7.756   5.255   3.196 -2.5524  0.6967  1.2650
12931SOL     OW40233   2.674   5.806   0.982 -0.1753  0.4554  0.2430
12931SOL    HW140234   2.710   5.747   0.916 -1.5055  2.1628 -2.1956
12931SOL    HW240235   2.667   5.752   1.061  1.1815 -1.8142 -1.0638
12932SOL     OW40236   4.476   1.415   5.293  0.1255 -0.3689 -0.7403
12932SOL    HW140237   4.560   1.446   5.327  0.2038  0.3702 -1.5688
12932SOL    HW240238   4.451   1.344   5.352  0.6132  0.3708  0.3812
12933SOL     OW40239   6.479   3.039   3.515 -0.2046  0.0440 -0.2449
12933SOL    HW140240   6.540   2.969   3.538 -0.5103 -0.6892 -1.5568
12933SOL    HW240241   6.477   3.095   3.592  0.4240 -1.1206  0.6548
12934SOL     OW40242   1.381   2.115   3.542 -0.3528 -0.1855  0.2422
12934SOL    HW140243   1.316   2.182   3.523 -0.5451  0.1033  1.8064
12934SOL    HW240244   1.346   2.068   3.618  0.3451 -1.2871 -0.0895
12935SOL     OW40245   0.845   5.697   1.045  0.3645  0.2990  0.9127
12935SOL    HW140246   0.756   5.662   1.048  0.4465  0.1062  1.1582
12935SOL    HW240247   0.865   5.707   0.952  0.3083 -0.2256  0.8436
12936SOL     OW40248   1.054   6.706  11.890  0.0620  0.3282  0.0675
12936SOL    HW140249   0.978   6.721  11.947 -0.3158  0.1544 -0.3845
12936SOL    HW240250   1.124   6.679  11.950 -0.8389 -1.7125  0.2752
12937SOL     OW40251   4.853   2.639   1.742  0.0866 -0.2193  1.0737
12937SOL    HW140252   4.811   2.555   1.724  0.3819 -0.2329  0.4254
12937SOL    HW240253   4.900   2.660   1.661 -0.6544  0.9636  0.9222
12938SOL     OW40254   7.242   0.350  11.511 -0.0987  0.3384  0.4218
12938SOL    HW140255   7.281   0.317  11.592  0.0887 -1.0447 -0.1984
12938SOL    HW240256   7.196   0.275  11.474  0.1878  0.8093 -0.9715
12939SOL     OW40257   5.420   0.530   0.124  0.4076  0.2352 -0.0780
12939SOL    HW140258   5.349   0.589   0.148  0.6044  0.8976 -1.0818
12939SOL    HW240259   5.463   0.572   0.050  1.9945 -0.0355  0.6374
12940SOL     OW40260   1.748   2.876   6.027  0.2804  0.0325  0.2984
12940SOL    HW140261   1.821   2.841   5.976  0.2187  0.2270  0.0754
12940SOL    HW240262   1.671   2.831   5.994  0.2379  0.1731  0.2065
12941SOL     OW40263   7.443   0.728   0.438 -0.6375 -0.3725  0.3514
12941SOL    HW140264   7.523   0.778   0.454 -0.0317 -0.8165 -1.1339
12941SOL    HW240265   7.466   0.638   0.460  0.2311 -1.0072 -2.7289
12942SOL     OW40266   7.400   0.939   4.534 -0.4122  0.0490  0.1728
12942SOL    HW140267   7.445   0.896   4.461  1.3371 -0.6789  1.6115
12942SOL    HW240268   7.460   1.007   4.562 -0.6869 -0.2118  1.4484
12943SOL     OW40269   5.636   7.123   5.908  0.2807 -0.2345  0.1371
12943SOL    HW140270   5.616   7.211   5.941  0.6901  0.0793 -0.4287
12943SOL    HW240271   5.697   7.087   5.973 -0.2162 -0.2638  0.5894
12944SOL     OW40272   3.540   7.210   4.115 -0.0190  0.1953 -0.2494
12944SOL    HW140273   3.526   7.218   4.021 -0.8896 -0.8322 -0.2178
12944SOL    HW240274   3.489   7.282   4.153  0.2925  0.5796 -0.5441
12945SOL     OW40275   6.917   3.310   4.117  0.0480 -0.7158  0.2538
12945SOL    HW140276   6.837   3.258   4.113 -0.3124 -0.3795  2.0241
12945SOL    HW240277   6.976   3.258   4.172  0.0825  0.2292  1.1305
12946SOL     OW40278   5.142   4.985   4.616 -0.2959  0.1137 -0.5351
12946SOL    HW140279   5.129   5.079   4.601 -0.6841 -0.2364 -2.8487
12946SOL    HW240280   5.237   4.973   4.608 -0.4217  0.0534 -2.4345
12947SOL     OW40281   3.568   6.994   6.107 -0.2751  0.2384 -0.2298
12947SOL    HW140282   3.561   7.063   6.041 -1.6670 -0.9982 -1.4513
12947SOL    HW240283   3.608   7.036   6.183 -2.0760  2.6520 -0.5355
12948SOL     OW40284   0.406   1.946   1.151 -0.5024 -0.0362 -0.2930
12948SOL    HW140285   0.356   1.902   1.220 -0.3913 -0.1070 -0.2570
12948SOL    HW240286   0.351   2.020   1.125 -0.6988 -0.2064 -0.3674
12949SOL     OW40287   4.840   2.750   8.028  0.2491 -0.1153  0.2746
12949SOL    HW140288   4.778   2.772   7.958 -0.7466  0.8040  1.3856
12949SOL    HW240289   4.835   2.825   8.088  2.0786 -0.2603  0.6606
12950SOL     OW40290   6.384   1.099   1.570 -0.4993  0.2284  0.0869
12950SOL    HW140291   6.412   1.120   1.481  0.0582  0.5801  0.3361
12950SOL    HW240292   6.400   1.005   1.579  0.6396  0.4192  0.2228
12951SOL     OW40293   6.550   2.505   3.821 -0.2653  0.4218 -0.2882
12951SOL    HW140294   6.516   2.558   3.894 -0.4005 -1.2639  0.9383
12951SOL    HW240295   6.487   2.520   3.750  0.0132  2.3081 -0.1758
12952SOL     OW40296   2.294   7.879   4.617 -0.1409 -0.3598 -0.1639
12952SOL    HW140297   2.245   7.913   4.543 -1.3842 -0.9164  0.3822
12952SOL    HW240298   2.345   7.806   4.581  1.8617  1.4201 -1.1506
12953SOL     OW40299   3.109   1.358   9.647  0.2430  0.1251  0.2434
12953SOL    HW140300   3.184   1.416   9.632  0.9130 -0.7189  0.2641
12953SOL    HW240301   3.147   1.278   9.685 -0.6525 -0.3507  0.1666
12954SOL     OW40302   4.096   4.617  10.705 -0.1540 -0.3904  0.2133
12954SOL    HW140303   4.081   4.542  10.647  0.0871 -1.1224  1.0748
12954SOL    HW240304   4.172   4.661  10.668  1.5212 -2.2150  1.2520
12955SOL     OW40305   6.516   4.874  12.084 -0.0087 -0.0964  0.3386
12955SOL    HW140306   6.458   4.935  12.130 -0.9689 -1.5167  1.1095
12955SOL    HW240307   6.546   4.922  12.008 -0.2226  1.5472  1.2470
12956SOL     OW40308   6.237   6.209   4.482  0.2816  0.0208 -0.6112
12956SOL    HW140309   6.153   6.185   4.519  0.1370 -2.9951 -2.5364
12956SOL    HW240310   6.280   6.261   4.549 -2.6916  0.8260  0.8046
12957SOL     OW40311   6.773   2.610  11.271 -0.1000 -0.0951 -0.0303
12957SOL    HW140312   6.745   2.701  11.258 -0.4919 -0.1299  0.5224
12957SOL    HW240313   6.791   2.578  11.183  1.5687  0.9869 -0.1222
12958SOL     OW40314   1.116   1.512   2.410  0.1959 -0.0920 -0.2676
12958SOL    HW140315   1.052   1.507   2.339 -0.3707  1.4452  0.0882
12958SOL    HW240316   1.199   1.526   2.366 -0.0396  0.1072 -0.6563
12959SOL     OW40317   6.455   0.635  10.388 -0.0263 -0.1216 -0.5641
12959SOL    HW140318   6.504   0.695  10.444  1.2656 -2.3502  0.8823
12959SOL    HW240319   6.367   0.672  10.383  0.6313  1.6853  0.5111
12960SOL     OW40320   2.080   7.357   1.545 -0.0348  0.5120  0.3789
12960SOL    HW140321   2.042   7.441   1.517 -1.6599 -0.3116  0.0077
12960SOL    HW240322   2.136   7.331   1.472 -1.4633  0.1042 -0.6137
12961SOL     OW40323   7.629   4.176  11.964  0.1346  0.0517  0.0234
12961SOL    HW140324   7.555   4.228  11.995 -0.1680 -0.7572  0.7210
12961SOL    HW240325   7.611   4.162  11.871 -0.1211  0.6177 -0.0176
12962SOL     OW40326   3.659   0.232  11.230 -0.5710 -0.3050 -0.5523
12962SOL    HW140327   3.616   0.149  11.251 -0.9151  0.1545  0.6518
12962SOL    HW240328   3.605   0.269  11.160 -3.1401  0.9503  1.8974
12963SOL     OW40329   5.273   2.658   1.716 -0.0611  0.3348  0.3862
12963SOL    HW140330   5.368   2.647   1.723 -0.0899 -0.3298 -0.1555
12963SOL    HW240331   5.258   2.750   1.740  0.7936  0.6279 -0.1244
12964SOL     OW40332   2.074   6.647   3.809  0.4234 -0.0590 -0.2428
12964SOL    HW140333   2.004   6.582   3.817  1.2961 -1.5291 -3.0248
12964SOL    HW240334   2.029   6.731   3.803 -0.9806 -0.7730  0.0663
12965SOL     OW40335   1.107   6.762   7.032 -0.1579  0.3217  0.3325
12965SOL    HW140336   1.025   6.762   6.983 -1.2353 -0.1520  2.0184
12965SOL    HW240337   1.141   6.673   7.021 -0.9865 -0.1431  1.3028
12966SOL     OW40338   7.950   1.531   8.685  0.2148 -0.2560  0.1699
12966SOL    HW140339   7.936   1.471   8.758  0.1652 -0.3406  0.0911
12966SOL    HW240340   7.950   1.475   8.607 -2.3821  0.0779 -0.1838
12967SOL     OW40341   4.030   1.202  11.309 -0.0132  0.0205  0.3219
12967SOL    HW140342   3.985   1.265  11.365  0.7563 -1.6510  2.9811
12967SOL    HW240343   3.964   1.135  11.290  0.3727 -0.6811  1.3695
12968SOL     OW40344   3.639   3.647   7.313  0.1048 -0.2591  0.0778
12968SOL    HW140345   3.607   3.570   7.360 -1.4027 -0.3861 -1.0957
12968SOL    HW240346   3.714   3.677   7.364 -0.5693 -1.2625  1.7090
12969SOL     OW40347   5.362   3.026   3.768 -0.1676 -0.1528 -0.3762
12969SOL    HW140348   5.314   3.018   3.851 -0.5497  0.2736 -0.5497
12969SOL    HW240349   5.424   2.954   3.769  0.5880  0.4907  0.7794
12970SOL     OW40350   4.150   6.182   8.732  0.6965  0.0864  0.1976
12970SOL    HW140351   4.150   6.273   8.702  1.7734  0.5800  1.5445
12970SOL    HW240352   4.149   6.189   8.828 -0.8156 -1.3665  0.3272
12971SOL     OW40353   0.208   7.675   5.424 -0.0782  0.3369  0.0418
12971SOL    HW140354   0.177   7.651   5.511 -1.0368  0.2726 -0.3032
12971SOL    HW240355   0.216   7.592   5.377 -1.7633  0.5173 -0.6244
12972SOL     OW40356   7.252   4.097   0.270 -0.1227  0.6137  0.4483
12972SOL    HW140357   7.206   4.028   0.318 -0.4781  0.2529 -0.3862
12972SOL    HW240358   7.191   4.171   0.270 -1.3745 -0.3100 -1.8447
12973SOL     OW40359   6.265   6.653   8.300 -0.0855 -0.0055 -0.1764
12973SOL    HW140360   6.200   6.652   8.371 -0.8816  0.6120 -0.8721
12973SOL    HW240361   6.229   6.714   8.236  1.0380  0.0950 -0.7345
12974SOL     OW40362   1.957   2.873   3.540 -0.3151  0.0700  0.7489
12974SOL    HW140363   1.882   2.869   3.481 -0.3730 -1.3276  0.8731
12974SOL    HW240364   1.936   2.811   3.610  0.3216  0.7373  1.5620
12975SOL     OW40365   2.791   3.827   7.674  0.3389  0.1673  0.5139
12975SOL    HW140366   2.847   3.862   7.605 -1.6034 -2.5289 -2.7440
12975SOL    HW240367   2.846   3.764   7.721  1.5434  1.6603  1.1726
12976SOL     OW40368   6.016   1.998   8.562  0.5250  0.0608  0.1178
12976SOL    HW140369   6.097   1.955   8.536 -0.1520 -0.9543 -0.3640
12976SOL    HW240370   5.959   1.993   8.485 -0.4301 -0.3443  0.8223
12977SOL     OW40371   7.422   5.104   1.808  0.5033  0.0704  0.2327
12977SOL    HW140372   7.491   5.163   1.838 -0.4155  1.1356  0.3027
12977SOL    HW240373   7.379   5.151   1.736  1.0580 -1.3837 -1.1045
12978SOL     OW40374   6.393   3.535   0.642 -0.0347  0.0323  0.3855
12978SOL    HW140375   6.380   3.580   0.558 -1.1634  0.8495  0.9673
12978SOL    HW240376   6.331   3.463   0.640 -1.7159  1.3683  1.3872
12979SOL     OW40377   5.665   2.528   8.784 -0.0338 -0.1635  0.0938
12979SOL    HW140378   5.694   2.507   8.696  1.4826  1.6245  0.1113
12979SOL    HW240379   5.587   2.474   8.797 -2.1403  1.6639 -3.4380
12980SOL     OW40380   0.467   0.855   2.870  0.1911 -0.5100  0.1006
12980SOL    HW140381   0.538   0.889   2.925 -0.1487  0.0563  0.1951
12980SOL    HW240382   0.391   0.853   2.928 -0.3432  0.7581 -0.5299
12981SOL     OW40383   7.568   4.656   2.268 -0.2340  0.3317 -0.0849
12981SOL    HW140384   7.536   4.611   2.346  0.0919  2.6664  1.5009
12981SOL    HW240385   7.526   4.610   2.195  0.6178 -2.9130  1.2757
12982SOL     OW40386   2.322   4.217   6.095  0.0223 -0.0850 -0.1007
12982SOL    HW140387   2.402   4.191   6.141 -0.2392 -0.3342  0.2163
12982SOL    HW240388   2.314   4.311   6.112 -0.6899 -0.3812  1.3538
12983SOL     OW40389   3.477   0.557   1.026 -0.1578 -0.9152  0.0630
12983SOL    HW140390   3.535   0.612   1.078 -0.3956 -0.3661 -0.2460
12983SOL    HW240391   3.432   0.618   0.968 -0.9429 -1.3512  0.2038
12984SOL     OW40392   3.010   6.831  12.224 -0.2498  0.0250 -0.2689
12984SOL    HW140393   3.070   6.887  12.174 -0.2481  0.3447  0.0898
12984SOL    HW240394   2.952   6.794  12.158 -0.0614  0.2171 -0.5461
12985SOL     OW40395   0.020   0.736   9.355 -0.3115 -0.0734  0.1618
12985SOL    HW140396   0.009   0.771   9.267 -1.1423 -1.2045 -0.2169
12985SOL    HW240397  -0.044   0.784   9.408  0.7693  1.2033  0.3567
12986SOL     OW40398   2.269   7.464   0.355  0.1820  0.4271  0.7328
12986SOL    HW140399   2.349   7.493   0.399  0.0593  0.5634  0.8672
12986SOL    HW240400   2.254   7.531   0.288 -0.5558  1.1184  1.5803
12987SOL     OW40401   3.659   2.866   6.000  0.1040 -0.2178 -0.4788
12987SOL    HW140402   3.576   2.912   5.998 -0.6412 -1.3324  1.7224
12987SOL    HW240403   3.723   2.932   6.028 -0.6388 -0.0683  0.9489
12988SOL     OW40404   4.640   6.402   1.134 -0.1266  0.2061  0.1898
12988SOL    HW140405   4.622   6.353   1.053  2.1136  0.7327 -0.6833
12988SOL    HW240406   4.714   6.357   1.173 -0.5132  0.6117  1.4276
12989SOL     OW40407   7.727   0.501   3.262  0.5378 -0.2659  0.5068
12989SOL    HW140408   7.750   0.553   3.339  2.7797  0.5372 -0.6173
12989SOL    HW240409   7.689   0.564   3.201  0.3745 -0.5641  0.2978
12990SOL     OW40410   1.181   2.439   9.581 -0.1420  0.3438 -0.2374
12990SOL    HW140411   1.232   2.518   9.565 -1.2631  1.0458 -0.4397
12990SOL    HW240412   1.159   2.444   9.675  0.0936  0.0880 -0.1694
12991SOL     OW40413   1.939   6.382  11.916  0.2183 -0.4123  0.6694
12991SOL    HW140414   2.016   6.439  11.914  0.1049 -0.0804  2.9038
12991SOL    HW240415   1.973   6.296  11.890  0.7059  0.2906 -1.1944
12992SOL     OW40416   5.680   6.847   9.949  0.5485  0.3565  0.3402
12992SOL    HW140417   5.593   6.869   9.980  0.2269 -1.3816  0.7871
12992SOL    HW240418   5.666   6.773   9.889  1.6612  0.3794  0.0319
12993SOL     OW40419   4.804   3.759  12.085 -0.5808 -0.1203  0.0361
12993SOL    HW140420   4.710   3.767  12.101 -0.6112 -0.4468  0.0408
12993SOL    HW240421   4.822   3.822  12.016 -0.7223  0.2471  0.3264
12994SOL     OW40422   3.439   7.055  12.073 -0.0325  0.3465 -0.6949
12994SOL    HW140423   3.441   7.014  12.159 -0.1381  0.0625 -0.8256
12994SOL    HW240424   3.530   7.052  12.042 -0.2581 -1.0864 -1.3011
12995SOL     OW40425   4.918   0.998   4.330 -0.0154  0.2431 -0.0717
12995SOL    HW140426   4.869   0.943   4.268  0.1290 -0.5176  0.4772
12995SOL    HW240427   4.991   1.032   4.278  1.3267 -2.0819  0.1595
12996SOL     OW40428   1.237   4.933  11.764  0.2272  0.4232 -0.3602
12996SOL    HW140429   1.331   4.921  11.780  0.2082 -0.2351 -0.7228
12996SOL    HW240430   1.223   4.903  11.675 -0.6911 -1.5716  0.3917
12997SOL     OW40431   2.666   7.571   9.870 -0.7371 -0.2795 -0.0784
12997SOL    HW140432   2.756   7.585   9.898 -0.3896 -1.7705 -0.3747
12997SOL    HW240433   2.640   7.654   9.830  0.6072  0.0567 -0.3025
12998SOL     OW40434   6.333   3.912   2.439 -0.4843  0.4220  0.2613
12998SOL    HW140435   6.271   3.880   2.374  1.1273  0.5009 -1.3977
12998SOL    HW240436   6.353   3.835   2.493  0.0657 -0.3208 -0.9529
12999SOL     OW40437   3.251   2.597   0.274 -0.0997 -0.0578  0.3973
12999SOL    HW140438   3.204   2.520   0.305 -2.8074  0.3540 -2.1721
12999SOL    HW240439   3.195   2.671   0.297  0.9471  0.8376  0.1737
13000SOL     OW40440   7.571   0.897   5.949 -0.3075 -0.5577 -0.2853
13000SOL    HW140441   7.604   0.811   5.922 -0.6627 -0.4535 -1.0601
13000SOL    HW240442   7.546   0.940   5.868 -1.1047 -0.1116  0.1865
13001SOL     OW40443   7.220   2.998   7.891 -0.1534 -0.2181  0.7755
13001SOL    HW140444   7.233   2.914   7.934  0.3348 -0.0277  1.0050
13001SOL    HW240445   7.155   2.981   7.823 -1.2556 -0.4453  1.8454
13002SOL     OW40446   1.608   5.964   2.247 -0.2773  0.2194 -0.0469
13002SOL    HW140447   1.529   6.017   2.244 -1.6534 -1.7154 -2.9115
13002SOL    HW240448   1.637   5.959   2.156  3.4403  1.1099  0.9014
13003SOL     OW40449   0.204   5.397   0.878 -0.2717  0.2730  0.2781
13003SOL    HW140450   0.151   5.325   0.914  0.0957  0.6371  1.6159
13003SOL    HW240451   0.266   5.418   0.948  0.3742  1.1416 -0.5305
13004SOL     OW40452   4.744   2.164   8.972 -0.5158  0.5730  0.0908
13004SOL    HW140453   4.744   2.111   9.052 -1.0054 -0.3251 -0.4846
13004SOL    HW240454   4.774   2.103   8.904 -1.5533  0.8993 -0.6753
13005SOL     OW40455   4.961   0.717   3.971 -0.6399  0.5798  0.2913
13005SOL    HW140456   4.902   0.749   3.903 -0.0790  1.0061 -0.0116
13005SOL    HW240457   4.997   0.636   3.935  0.9188  1.6445 -0.6837
13006SOL     OW40458   4.171   2.018  11.663 -0.2868 -0.5188  0.3939
13006SOL    HW140459   4.265   2.035  11.662 -0.0934 -1.4591  0.7972
13006SOL    HW240460   4.152   1.990  11.753 -0.8068 -1.0416  0.1369
13007SOL     OW40461   4.766   0.756  10.516  0.7120  0.2756  0.5767
13007SOL    HW140462   4.731   0.667  10.517  1.9242 -0.2370 -0.5253
13007SOL    HW240463   4.705   0.806  10.462  0.0994  0.0845  1.0906
13008SOL     OW40464   7.705   7.335   4.595  0.1539  0.5314  0.1938
13008SOL    HW140465   7.610   7.333   4.591  0.1051  1.8743  0.2347
13008SOL    HW240466   7.730   7.246   4.622 -1.1868  0.8239  2.6077
13009SOL     OW40467   3.195   1.071   9.303  1.1900 -0.4715  0.3766
13009SOL    HW140468   3.235   1.123   9.234 -1.0390 -0.7306 -1.2089
13009SOL    HW240469   3.120   1.123   9.331 -0.0909 -2.0373 -0.0495
13010SOL     OW40470   1.882   2.395   7.105  0.5549 -0.6150 -0.1654
13010SOL    HW140471   1.788   2.381   7.103  0.6231 -1.0833 -1.7014
13010SOL    HW240472   1.918   2.328   7.046  1.9522 -1.1077  1.1699
13011SOL     OW40473   3.988   5.898   3.788  0.3218 -0.3893 -0.0778
13011SOL    HW140474   4.008   5.903   3.694  2.7443 -0.4380  0.3810
13011SOL    HW240475   3.972   5.988   3.814 -0.0502 -0.3421 -0.4498
13012SOL     OW40476   7.510   2.503   8.876 -0.0802 -0.0567 -0.2416
13012SOL    HW140477   7.497   2.502   8.971  1.5747 -2.3864  0.0603
13012SOL    HW240478   7.484   2.591   8.849 -2.6082  0.0207  2.0234
13013SOL     OW40479   5.870   5.004   3.109  0.6068  0.3806  0.2337
13013SOL    HW140480   5.866   5.020   3.015  1.5499 -0.4214  0.0454
13013SOL    HW240481   5.801   4.939   3.125  0.9134 -0.0095 -0.0211
13014SOL     OW40482   6.827   0.549   6.499 -0.2314 -0.1558  0.0983
13014SOL    HW140483   6.905   0.580   6.544  0.7302 -1.2099 -0.7961
13014SOL    HW240484   6.769   0.626   6.497  1.7381  1.4104 -1.3470
13015SOL     OW40485   6.267   2.518   7.319 -0.1156 -0.4238  0.3314
13015SOL    HW140486   6.291   2.561   7.402  0.2205  0.7436 -0.3537
13015SOL    HW240487   6.236   2.589   7.263  0.1767 -1.1215 -0.7430
13016SOL     OW40488   6.116   4.223   9.947 -0.0969  0.1398 -0.1132
13016SOL    HW140489   6.112   4.191   9.857 -1.9454  0.8052 -0.3154
13016SOL    HW240490   6.127   4.318   9.938 -0.2299  0.2052  0.3775
13017SOL     OW40491   0.087   4.925   6.361 -0.3376  0.2462 -0.1433
13017SOL    HW140492   0.049   4.958   6.279 -1.3859 -0.5912 -0.0156
13017SOL    HW240493   0.018   4.938   6.426 -0.0203 -0.3750  0.3213
13018SOL     OW40494   6.835   6.175   3.887  0.1158 -0.1236 -0.2073
13018SOL    HW140495   6.888   6.196   3.964 -0.0913 -0.0407 -0.0844
13018SOL    HW240496   6.897   6.176   3.814  0.3683 -0.4911 -0.0020
13019SOL     OW40497   2.879   4.067   1.146 -0.4772  0.2446  0.2174
13019SOL    HW140498   2.969   4.072   1.113 -0.2422  0.7173  0.9120
13019SOL    HW240499   2.830   4.127   1.090 -0.8486 -1.6422 -1.6234
13020SOL     OW40500   2.941   1.138   9.769  0.3409 -0.0002 -0.2689
13020SOL    HW140501   2.911   1.170   9.684  1.7273 -0.5350 -0.9855
13020SOL    HW240502   3.036   1.140   9.764  0.4541 -0.4222  1.1394
13021SOL     OW40503   1.921   2.705  10.894  0.4586  0.0705  0.6428
13021SOL    HW140504   1.861   2.658  10.953  0.3377  0.7110  1.0449
13021SOL    HW240505   1.966   2.767  10.952 -0.3202  1.3583 -0.0850
13022SOL     OW40506   6.544   4.756   5.208  0.4393  0.3386  0.3989
13022SOL    HW140507   6.546   4.700   5.131 -0.1421  1.1763 -0.2456
13022SOL    HW240508   6.614   4.723   5.264 -1.5255 -2.7052  1.2750
13023SOL     OW40509   2.071   5.860   2.282 -0.0266  0.0020 -0.0621
13023SOL    HW140510   2.006   5.919   2.321 -1.1430 -1.3995  0.3014
13023SOL    HW240511   2.021   5.780   2.263  1.7265 -1.3826  0.8592
13024SOL     OW40512   6.372   4.189   1.408 -0.4703  0.4615 -0.3210
13024SOL    HW140513   6.323   4.271   1.401 -0.0174  0.7569 -0.1158
13024SOL    HW240514   6.377   4.173   1.503 -1.7238 -0.5264 -0.3965
13025SOL     OW40515   7.930   0.475   3.913  0.2689  0.3310 -0.3445
13025SOL    HW140516   7.938   0.409   3.982  0.0355 -0.6464 -1.2222
13025SOL    HW240517   8.011   0.526   3.918  1.3768 -1.3041 -0.9243
13026SOL     OW40518   4.362   4.125   3.050 -0.3378  0.2039 -0.1486
13026SOL    HW140519   4.305   4.097   2.978  0.4125 -0.4285 -0.5130
13026SOL    HW240520   4.448   4.088   3.028  0.0601  0.5902  0.7212
13027SOL     OW40521   5.753   0.697   7.953 -0.5046 -0.4977 -0.2151
13027SOL    HW140522   5.681   0.676   8.013  0.4427  1.1301  1.5919
13027SOL    HW240523   5.717   0.767   7.898 -0.4099  0.1174  0.4944
13028SOL     OW40524   6.783   6.325   5.954 -0.0145  0.1405 -0.8802
13028SOL    HW140525   6.791   6.274   5.873 -1.6857  0.3848 -1.2266
13028SOL    HW240526   6.855   6.294   6.009 -0.3681 -1.8616 -1.4780
13029SOL     OW40527   0.687   4.421   9.306  0.9638  0.3512  0.0089
13029SOL    HW140528   0.652   4.421   9.395  0.7485 -1.5385 -0.0278
13029SOL    HW240529   0.656   4.339   9.269  1.8613  0.6617 -1.4946
13030SOL     OW40530   4.249   7.915   5.514 -0.0399 -0.0775  0.0816
13030SOL    HW140531   4.186   7.915   5.587  1.2774  1.0104  1.2797
13030SOL    HW240532   4.276   7.824   5.505 -0.6600 -0.3152  0.5492
13031SOL     OW40533   1.540   4.514   1.521  0.1234  0.1137 -0.3376
13031SOL    HW140534   1.561   4.421   1.519  0.1623  0.1364 -1.0470
13031SOL    HW240535   1.589   4.547   1.596  0.1178 -0.4338 -0.0878
13032SOL     OW40536   5.988   4.885  11.338 -0.1740  0.0195 -0.2727
13032SOL    HW140537   6.077   4.919  11.327 -0.0564  0.4323  1.6377
13032SOL    HW240538   5.997   4.791  11.320  0.5441  0.1203 -0.5124
13033SOL     OW40539   5.643   2.473   4.215 -0.0691  0.3377  0.3389
13033SOL    HW140540   5.587   2.447   4.142 -1.5139  0.8523  1.2179
13033SOL    HW240541   5.677   2.390   4.250  0.8988  0.1027 -1.0656
13034SOL     OW40542   0.812   5.360   3.584  0.1015  0.6727  0.0117
13034SOL    HW140543   0.855   5.299   3.525 -0.0353 -1.1909  1.7404
13034SOL    HW240544   0.878   5.381   3.650  0.6152  3.5964 -1.2984
13035SOL     OW40545   1.437   5.112   2.332 -0.1331  0.1293  0.0821
13035SOL    HW140546   1.353   5.065   2.337 -0.4899  0.6697 -0.6484
13035SOL    HW240547   1.476   5.101   2.419  0.7409 -3.2164 -0.5901
13036SOL     OW40548   6.669   7.173   0.502 -0.1169  0.0283  0.5439
13036SOL    HW140549   6.738   7.129   0.553  0.0768 -1.5109 -0.9317
13036SOL    HW240550   6.629   7.102   0.451 -1.3931  1.2414 -0.2050
13037SOL     OW40551   1.915   6.870  10.015  0.3105  0.0383 -0.0409
13037SOL    HW140552   1.831   6.914  10.004  0.5350  0.2753 -0.9014
13037SOL    HW240553   1.914   6.800   9.950  0.9643  0.3405 -0.3910
13038SOL     OW40554   6.205   6.738   8.924 -0.4423 -0.0445  0.2470
13038SOL    HW140555   6.249   6.804   8.869 -0.4027 -0.7489 -0.5856
13038SOL    HW240556   6.216   6.771   9.014 -0.2152  0.9576 -0.1319
13039SOL     OW40557   5.589   1.558   5.839  0.0849  0.0871  0.8337
13039SOL    HW140558   5.668   1.554   5.784 -0.1548  0.8707  0.4165
13039SOL    HW240559   5.607   1.630   5.900 -0.4340  0.4931  0.5193
13040SOL     OW40560   2.324   7.166   2.631 -0.3929  0.2696 -0.0836
13040SOL    HW140561   2.310   7.146   2.539 -2.1066 -0.6414  0.3334
13040SOL    HW240562   2.388   7.102   2.661 -0.1294  0.3193 -0.5301
13041SOL     OW40563   2.422   0.791   2.306 -0.6562 -0.1999 -0.8346
13041SOL    HW140564   2.355   0.788   2.375  0.4296  1.0465  0.3548
13041SOL    HW240565   2.497   0.744   2.344  0.5337  1.9039 -0.4227
13042SOL     OW40566   5.415   1.597  10.967 -0.3338 -0.4011 -0.1388
13042SOL    HW140567   5.495   1.643  10.992  0.0109 -1.6375  1.1560
13042SOL    HW240568   5.366   1.661  10.916  0.9231  0.7940  0.0845
13043SOL     OW40569   0.765   3.285   6.982  0.5748 -0.2325  0.3295
13043SOL    HW140570   0.825   3.348   6.942  0.8804 -0.8090 -0.1488
13043SOL    HW240571   0.684   3.293   6.932  0.9636 -0.9681 -0.4527
13044SOL     OW40572   4.229   3.398  10.743  0.5427  0.1890 -0.1575
13044SOL    HW140573   4.184   3.469  10.697 -0.1819 -1.5158 -2.2518
13044SOL    HW240574   4.160   3.352  10.791  0.9203  0.5418  0.7484
13045SOL     OW40575   6.827   0.502  10.265  0.4113 -0.1753  0.3659
13045SOL    HW140576   6.883   0.466  10.334  0.6834  0.1774  0.3310
13045SOL    HW240577   6.771   0.429  10.240  1.0566 -0.6233  0.1960
13046SOL     OW40578   3.236   5.953   1.796 -0.1711  0.6338  0.3791
13046SOL    HW140579   3.168   6.010   1.831 -0.8254 -0.0507  0.2447
13046SOL    HW240580   3.318   6.000   1.813 -0.5774  0.9179  1.6161
13047SOL     OW40581   0.714   3.142   0.274  0.1808  0.1964 -0.0851
13047SOL    HW140582   0.698   3.062   0.323  0.0836  0.5808  0.5182
13047SOL    HW240583   0.791   3.123   0.221  0.8119  0.0681  0.8664
13048SOL     OW40584   5.631   4.988   2.535 -0.0162 -0.4181 -0.2972
13048SOL    HW140585   5.639   4.994   2.630  0.0671  0.6480 -0.3593
13048SOL    HW240586   5.633   4.894   2.517  1.0881 -0.5982  0.6495
13049SOL     OW40587   7.939   5.949   5.827 -0.5030 -0.3463  0.1924
13049SOL    HW140588   8.006   6.016   5.810 -0.3341 -0.7949 -0.9925
13049SOL    HW240589   7.869   5.968   5.764 -0.3551 -1.4181 -0.3124
13050SOL     OW40590   6.725   5.388   7.568  0.2947 -0.2937 -0.1550
13050SOL    HW140591   6.793   5.454   7.553  0.9847 -0.3522  2.2086
13050SOL    HW240592   6.772   5.304   7.565 -0.2321 -0.5576 -1.3307
13051SOL     OW40593   1.608   2.320  11.126  0.2854  0.2390 -0.3759
13051SOL    HW140594   1.581   2.229  11.133  0.2983  0.3502  1.8463
13051SOL    HW240595   1.704   2.317  11.128  0.3402  0.3622  2.8445
13052SOL     OW40596   4.298   3.956   5.689  0.4057  0.0288  0.1929
13052SOL    HW140597   4.327   3.870   5.720  0.5411  0.3296  0.9320
13052SOL    HW240598   4.204   3.958   5.709 -0.0951 -0.8091 -1.8808
13053SOL     OW40599   0.100   1.403  10.572 -0.4771 -0.3401 -0.7024
13053SOL    HW140600   0.187   1.366  10.559 -0.9381 -0.8843 -2.5354
13053SOL    HW240601   0.039   1.331  10.556 -1.2895  0.1340  0.1096
13054SOL     OW40602   5.914   4.663   9.200 -0.2660  0.0732  0.3660
13054SOL    HW140603   5.851   4.736   9.200 -0.7265 -0.3149  0.6600
13054SOL    HW240604   6.000   4.705   9.205 -0.4875  0.6223 -0.2936
13055SOL     OW40605   3.632   3.449   0.248 -0.1488 -0.0535 -0.1708
13055SOL    HW140606   3.691   3.521   0.228  1.7064 -0.5330  2.9743
13055SOL    HW240607   3.654   3.381   0.185 -0.6894  1.4124 -2.0311
13056SOL     OW40608   3.976   7.791   3.333  0.3140  0.2589 -0.0015
13056SOL    HW140609   3.930   7.830   3.259 -0.3263 -1.3882 -0.5167
13056SOL    HW240610   4.032   7.723   3.294  0.8296  0.1357  0.9169
13057SOL     OW40611   1.948   6.639   2.293 -0.2059  0.1583 -0.1002
13057SOL    HW140612   1.994   6.635   2.377  0.5358 -1.3572 -0.5661
13057SOL    HW240613   1.971   6.558   2.248 -2.0267  0.1043 -1.0356
13058SOL     OW40614   1.862   0.239   6.381  1.0919 -0.2113  0.2767
13058SOL    HW140615   1.925   0.310   6.389  2.6249 -1.6367  1.5601
13058SOL    HW240616   1.825   0.230   6.469 -1.0912  0.6877 -0.4707
13059SOL     OW40617   2.979   5.148   1.817 -0.2642  0.0441  0.0342
13059SOL    HW140618   2.963   5.151   1.723 -0.4976 -0.2706  0.0646
13059SOL    HW240619   3.028   5.067   1.831  0.4678  0.4802  0.0828
13060SOL     OW40620   2.889   4.521   2.224  0.0948 -0.8638 -0.0591
13060SOL    HW140621   2.939   4.471   2.161  1.4933 -0.9484  1.0657
13060SOL    HW240622   2.841   4.455   2.275 -0.6068 -0.8268 -0.6512
13061SOL     OW40623   1.114   0.999   9.916 -0.3108  0.3104  0.6988
13061SOL    HW140624   1.052   1.020   9.985 -0.9595 -1.7534  0.8046
13061SOL    HW240625   1.061   0.971   9.842  0.4356 -0.6118  0.4803
13062SOL     OW40626   7.294   6.409   8.196  0.1327 -0.2652 -0.7862
13062SOL    HW140627   7.360   6.372   8.254  0.1813  0.0219 -0.6559
13062SOL    HW240628   7.342   6.433   8.117 -0.0496 -1.2625 -1.2062
13063SOL     OW40629   3.872   1.951   9.127 -0.1040  0.2375  0.4576
13063SOL    HW140630   3.898   1.863   9.100  3.2625  1.3710 -0.5391
13063SOL    HW240631   3.888   1.952   9.222  1.3645  0.1498  0.2425
13064SOL     OW40632   7.814   7.061   0.876 -0.1846 -0.1725 -0.8042
13064SOL    HW140633   7.883   7.126   0.863  0.3008 -0.5900 -0.3609
13064SOL    HW240634   7.742   7.092   0.822 -0.8241  1.9735  1.1487
13065SOL     OW40635   0.790   0.566   3.800 -1.0336  0.5947  0.1743
13065SOL    HW140636   0.703   0.565   3.760 -0.9364  0.5329 -0.0417
13065SOL    HW240637   0.850   0.563   3.725 -0.8446 -0.7001  0.3649
13066SOL     OW40638   4.085   6.995  10.345  0.1508  0.3094  0.0574
13066SOL    HW140639   4.058   6.921  10.291  2.4622 -0.8655  0.3772
13066SOL    HW240640   4.063   6.968  10.435  1.3567 -0.1897  0.2134
13067SOL     OW40641   1.600   4.438   0.832  0.0476  0.2379  0.1386
13067SOL    HW140642   1.561   4.445   0.745  0.6910  0.0514 -0.1771
13067SOL    HW240643   1.614   4.344   0.844  2.0967  0.3971 -0.5589
13068SOL     OW40644   3.802   2.436   5.870  0.0058  0.2624 -0.6073
13068SOL    HW140645   3.757   2.458   5.951 -0.9184 -3.3173  0.0120
13068SOL    HW240646   3.733   2.429   5.805  0.5138  1.1741 -1.2733
13069SOL     OW40647   5.507   4.522   0.817 -0.1983 -0.0405 -0.2063
13069SOL    HW140648   5.547   4.566   0.742 -1.0054 -0.3295 -0.8217
13069SOL    HW240649   5.447   4.458   0.778  1.0886 -1.8493  0.6332
13070SOL     OW40650   4.977   5.443   8.763  0.2311 -0.1036 -0.2233
13070SOL    HW140651   4.964   5.534   8.791  2.3360  0.6141 -1.3517
13070SOL    HW240652   4.940   5.391   8.833 -0.8270  1.6299  0.5668
13071SOL     OW40653   5.974   6.679   4.044  0.8162  0.0850 -0.4655
13071SOL    HW140654   6.035   6.745   4.012 -0.8660  1.8404 -0.2189
13071SOL    HW240655   5.928   6.648   3.965  0.7966  0.0563 -0.4431
13072SOL     OW40656   2.875   5.574   7.779  0.7378  0.1480 -0.7409
13072SOL    HW140657   2.821   5.496   7.793  0.3721  0.8607  2.4209
13072SOL    HW240658   2.811   5.644   7.767  0.7906  0.9319  2.6475
13073SOL     OW40659   1.101   7.522   0.311  0.5766 -0.2815 -0.0597
13073SOL    HW140660   1.075   7.430   0.321  1.5825 -0.5435  0.3682
13073SOL    HW240661   1.032   7.561   0.258 -1.0334 -0.7411  1.5804
13074SOL     OW40662   7.705   2.640  11.404 -0.3664 -0.3114  0.0522
13074SOL    HW140663   7.713   2.655  11.499  0.8925 -0.4492 -0.0178
13074SOL    HW240664   7.730   2.549  11.392 -2.1960 -0.8112 -0.2391
13075SOL     OW40665   0.067   3.159   7.951  0.3716 -0.0101  0.3956
13075SOL    HW140666  -0.017   3.120   7.931  1.5291 -2.3233 -0.2727
13075SOL    HW240667   0.110   3.171   7.866  1.1106  0.1431  0.7757
13076SOL     OW40668   1.039   1.687  12.415 -0.4755 -0.0705  0.0315
13076SOL    HW140669   0.952   1.727  12.416  0.5246  2.2387 -0.7050
13076SOL    HW240670   1.080   1.719  12.335  1.3907 -0.4081  0.8010
13077SOL     OW40671   2.630   0.037   4.183 -0.2149 -0.4145 -0.0284
13077SOL    HW140672   2.574  -0.033   4.149 -0.0150 -1.5235  1.8106
13077SOL    HW240673   2.617   0.034   4.278  0.3317  1.6114  0.1586
13078SOL     OW40674   4.426   4.090   9.216 -0.2535 -0.0521 -0.1632
13078SOL    HW140675   4.490   4.026   9.248  0.7305  0.1374 -1.6710
13078SOL    HW240676   4.399   4.057   9.130 -1.6347  0.2802  0.1118
13079SOL     OW40677   5.544   3.896   4.049  0.1603  0.0656 -0.1031
13079SOL    HW140678   5.608   3.825   4.059 -0.1364 -0.0104  1.3837
13079SOL    HW240679   5.568   3.938   3.966  1.5067 -0.5914 -0.0673
13080SOL     OW40680   2.908   3.649   9.314 -0.2329  0.5799  0.6898
13080SOL    HW140681   2.893   3.603   9.396 -0.1863 -0.0266  0.3669
13080SOL    HW240682   2.925   3.740   9.339 -3.3321  1.1201  1.1828
13081SOL     OW40683   3.701   3.195   1.192  0.1541 -0.1826  0.5593
13081SOL    HW140684   3.673   3.136   1.261  0.5540  1.0467  1.8160
13081SOL    HW240685   3.693   3.282   1.231  0.1311  0.5643 -1.0411
13082SOL     OW40686   4.214   1.221  12.089  0.3755 -0.1141  0.5198
13082SOL    HW140687   4.272   1.225  12.013 -0.7348  1.7417 -0.2689
13082SOL    HW240688   4.224   1.131  12.121  0.7021 -1.0161 -1.9278
13083SOL     OW40689   0.553   0.421   7.715 -0.4669  0.1511 -0.4281
13083SOL    HW140690   0.494   0.453   7.783  0.0907  0.2010  0.0355
13083SOL    HW240691   0.638   0.460   7.735 -0.3004  0.1885 -1.1681
13084SOL     OW40692   2.687   2.687   7.324 -0.2733  0.2299 -0.1865
13084SOL    HW140693   2.778   2.664   7.343  0.3621  2.3595 -0.4183
13084SOL    HW240694   2.636   2.637   7.388  1.1097 -0.3277  0.5248
13085SOL     OW40695   3.412   6.825   4.276 -0.3491  0.0153  0.3385
13085SOL    HW140696   3.505   6.842   4.266 -0.1541 -1.4671 -0.8398
13085SOL    HW240697   3.396   6.747   4.223 -2.4461  0.7646 -0.2441
13086SOL     OW40698   1.182   5.098   0.366  0.1458 -0.3066 -0.3700
13086SOL    HW140699   1.097   5.088   0.324  0.2788 -0.3634 -0.6292
13086SOL    HW240700   1.162   5.107   0.459 -0.0367 -2.0948 -0.2184
13087SOL     OW40701   6.093   3.456   5.059  0.2780 -0.3048 -0.8098
13087SOL    HW140702   6.170   3.488   5.106  0.5906  0.7003 -1.9381
13087SOL    HW240703   6.042   3.535   5.040 -0.0775 -0.7275 -1.7010
13088SOL     OW40704   1.118   1.839   9.564  0.5393 -0.0423 -0.0810
13088SOL    HW140705   1.058   1.826   9.637 -0.0989  0.9057 -0.4309
13088SOL    HW240706   1.195   1.787   9.588  0.1571 -0.1239  1.0388
13089SOL     OW40707   2.041   0.656   5.783 -0.3246  0.5863  0.1849
13089SOL    HW140708   2.128   0.626   5.757 -0.3409 -2.6119  3.0803
13089SOL    HW240709   1.983   0.623   5.715  0.3101 -1.3156  0.5107
13090SOL     OW40710   0.416   5.206   8.834  0.3970  0.3915 -0.1767
13090SOL    HW140711   0.438   5.297   8.812  0.6892  0.8925  1.9813
13090SOL    HW240712   0.376   5.172   8.754  2.8348  1.5091 -2.0219
13091SOL     OW40713   2.256   1.907   5.738 -0.8899 -0.0293 -0.2663
13091SOL    HW140714   2.343   1.869   5.739 -1.8728 -2.4780 -0.0627
13091SOL    HW240715   2.266   1.992   5.695  1.3919 -0.7052 -1.1733
13092SOL     OW40716   5.285   0.258   5.285  0.2144 -0.3094  0.1675
13092SOL    HW140717   5.292   0.168   5.253  2.2848 -0.1887  0.1183
13092SOL    HW240718   5.320   0.312   5.213  1.1690  0.3104  1.0643
13093SOL     OW40719   6.267   3.226   0.970 -0.3288  0.3611 -0.4938
13093SOL    HW140720   6.293   3.318   0.971 -0.3953  0.3757 -0.1135
13093SOL    HW240721   6.347   3.177   0.987 -0.6216  0.4261  1.2148
13094SOL     OW40722   6.528   6.247   0.005 -0.0045  0.5844 -0.3103
13094SOL    HW140723   6.435   6.264   0.021  0.1887  0.2311  1.3434
13094SOL    HW240724   6.532   6.153  -0.013 -0.0676  0.7629 -1.2983
13095SOL     OW40725   5.059   5.310   1.936 -0.2977  0.4436 -0.1317
13095SOL    HW140726   5.014   5.391   1.963  0.7920  1.2102 -0.5311
13095SOL    HW240727   4.996   5.240   1.956 -0.9094  1.2957  1.0771
13096SOL     OW40728   5.440   3.328  11.461  0.1351  0.0323 -0.2687
13096SOL    HW140729   5.354   3.287  11.449 -0.0907  0.7002 -0.9637
13096SOL    HW240730   5.496   3.257  11.493 -0.9005 -0.2032  1.1546
13097SOL     OW40731   7.712   1.155   6.964  0.2343  0.1825  0.2572
13097SOL    HW140732   7.723   1.200   6.880  0.0678  0.0888  0.1856
13097SOL    HW240733   7.726   1.063   6.944  1.0528  0.2470  0.4939
13098SOL     OW40734   2.958   0.966   1.963 -0.2758 -0.1578  0.2760
13098SOL    HW140735   3.023   1.015   1.912 -0.9145 -1.8303 -2.4047
13098SOL    HW240736   2.874   0.991   1.924 -0.7617 -1.8506  0.1706
13099SOL     OW40737   3.686   6.925   1.388 -0.5551 -0.8320 -0.7222
13099SOL    HW140738   3.699   6.850   1.330  0.7903 -2.3648  1.4021
13099SOL    HW240739   3.594   6.949   1.376 -0.2793 -0.7938 -3.6865
13100SOL     OW40740   7.746   5.163  10.271  0.4537 -0.0917  0.3018
13100SOL    HW140741   7.796   5.086  10.242  1.0195  0.2421  0.3659
13100SOL    HW240742   7.772   5.233  10.211 -0.6139 -0.1185 -0.2097
13101SOL     OW40743   2.178   1.721   0.210  0.0867  0.5984 -0.4684
13101SOL    HW140744   2.260   1.760   0.181 -0.1861  1.1746 -0.4698
13101SOL    HW240745   2.169   1.749   0.301 -0.2144  0.7036 -0.5321
13102SOL     OW40746   0.700   4.660   4.096 -0.3106  0.1112 -0.0290
13102SOL    HW140747   0.650   4.673   4.015  0.6928 -2.1325 -1.0971
13102SOL    HW240748   0.792   4.662   4.068  0.0390 -2.5435  0.6569
13103SOL     OW40749   0.968   3.838  11.352  0.4334 -0.1823  0.2171
13103SOL    HW140750   0.931   3.750  11.344 -0.2017  0.1052 -0.1382
13103SOL    HW240751   0.910   3.883  11.414  1.1936 -0.2397  0.9764
13104SOL     OW40752   6.651   7.812   5.695  0.7945 -0.1124 -0.0535
13104SOL    HW140753   6.698   7.838   5.616 -1.4023  1.4005 -0.9598
13104SOL    HW240754   6.687   7.867   5.764  0.4042  1.0278 -0.7322
13105SOL     OW40755   2.588   7.213  12.152  0.4512 -0.0453  0.0725
13105SOL    HW140756   2.549   7.237  12.236 -0.0348  0.7356 -0.3625
13105SOL    HW240757   2.666   7.164  12.175  1.1786  1.4938  1.0125
13106SOL     OW40758   5.373   2.279   2.503 -0.6049 -0.5089  0.3220
13106SOL    HW140759   5.455   2.328   2.488 -1.3234  0.4016 -0.7639
13106SOL    HW240760   5.327   2.331   2.569 -1.4177  0.3949 -0.9107
13107SOL     OW40761   5.466   2.394   9.680 -0.6601  0.2516  0.0106
13107SOL    HW140762   5.498   2.484   9.672  0.3953 -0.2047 -1.0927
13107SOL    HW240763   5.414   2.380   9.602 -1.0971 -0.0044  0.3432
13108SOL     OW40764   4.374   5.503  10.874  0.4569  0.3379  0.0913
13108SOL    HW140765   4.428   5.440  10.826  0.3727  0.9677 -0.8512
13108SOL    HW240766   4.335   5.451  10.945 -1.8347 -1.4167 -2.2671
13109SOL     OW40767   1.717   5.758   6.868 -0.3122 -0.3552  0.0547
13109SOL    HW140768   1.666   5.821   6.919  0.1232  0.3758 -0.3962
13109SOL    HW240769   1.767   5.812   6.806  0.5396 -1.0943  0.0761
13110SOL     OW40770   5.375   4.623   5.435  0.3076 -0.1331 -0.2426
13110SOL    HW140771   5.296   4.654   5.391  0.3297 -0.2608 -0.3684
13110SOL    HW240772   5.417   4.703   5.466  0.0333 -0.0746 -0.0134
13111SOL     OW40773   7.220   2.969   2.067  0.0235  0.2009 -0.5705
13111SOL    HW140774   7.265   3.008   2.142  0.4364  0.9379 -1.1892
13111SOL    HW240775   7.158   2.908   2.106 -2.3364  3.0968  0.6488
13112SOL     OW40776   4.564   1.191   2.874 -0.2082 -0.4534  1.0488
13112SOL    HW140777   4.505   1.117   2.866  0.4263 -0.7367 -2.5167
13112SOL    HW240778   4.652   1.153   2.870  0.1377  0.3585  0.5669
13113SOL     OW40779   1.480   1.435   9.148 -0.1709  0.5058 -0.4332
13113SOL    HW140780   1.514   1.484   9.073  0.8665  1.0946  0.3796
13113SOL    HW240781   1.506   1.488   9.224  1.0209 -1.3058  0.4764
13114SOL     OW40782   7.932   7.438   2.940  0.1110  0.1443 -0.0668
13114SOL    HW140783   7.855   7.482   2.977 -0.4641 -0.2198 -0.8020
13114SOL    HW240784   7.896   7.372   2.881  0.9355  1.9618 -2.8141
13115SOL     OW40785   3.272   7.523   2.147 -0.8076  0.0011  0.9058
13115SOL    HW140786   3.316   7.457   2.094 -0.3138  0.5714  0.5944
13115SOL    HW240787   3.279   7.491   2.237 -0.2166 -0.1726  0.7976
13116SOL     OW40788   3.379   5.196   9.433 -0.5680 -0.6129  0.4271
13116SOL    HW140789   3.362   5.135   9.505 -3.1594 -0.1615  0.2800
13116SOL    HW240790   3.294   5.210   9.393  0.3950  1.1463 -1.1603
13117SOL     OW40791   3.720   6.720   0.948 -0.6778 -0.3996 -0.0365
13117SOL    HW140792   3.814   6.711   0.934 -0.3475  1.2581  0.9299
13117SOL    HW240793   3.687   6.758   0.866 -0.3944 -0.2940 -0.1011
13118SOL     OW40794   3.675   4.740   9.677 -0.0470  0.0888  0.5809
13118SOL    HW140795   3.755   4.723   9.628 -0.7164 -0.6887 -0.2863
13118SOL    HW240796   3.680   4.832   9.701  0.4442  0.4243 -0.7227
13119SOL     OW40797   0.141   4.042   4.029 -0.0272 -0.4999 -0.2866
13119SOL    HW140798   0.053   4.078   4.034  0.2442  0.0830  0.4704
13119SOL    HW240799   0.129   3.950   4.005 -0.7786 -0.1530 -1.2918
13120SOL     OW40800   6.189   4.694   5.774  0.0524  0.5858  0.1113
13120SOL    HW140801   6.122   4.760   5.795  0.7616  0.9478  1.3322
13120SOL    HW240802   6.145   4.633   5.714 -1.2391  1.0458  0.5601
13121SOL     OW40803   1.627   1.945   2.720  0.2011  0.4327  0.4113
13121SOL    HW140804   1.577   1.996   2.785 -0.0269  1.8130 -0.8038
13121SOL    HW240805   1.564   1.928   2.650  1.1765  1.4351 -0.7404
13122SOL     OW40806   7.704   5.878   2.720 -0.0540  0.1888  0.1427
13122SOL    HW140807   7.798   5.866   2.731 -0.1002 -0.9589 -0.5668
13122SOL    HW240808   7.665   5.798   2.754 -0.8627  1.0466  1.3190
13123SOL     OW40809   7.540   0.999  10.069 -0.2655 -0.3224  0.1346
13123SOL    HW140810   7.604   0.942  10.027  0.9037  1.3977 -0.5482
13123SOL    HW240811   7.498   1.045   9.996  0.5667  1.4450  0.7136
13124SOL     OW40812   4.741   6.452  10.475  0.6009 -0.3611  0.9913
13124SOL    HW140813   4.806   6.422  10.411 -0.3851 -0.2613 -0.0879
13124SOL    HW240814   4.763   6.544  10.489  0.1528 -0.0721 -0.0844
13125SOL     OW40815   4.898   4.790   2.562  0.2302 -0.3638  0.4640
13125SOL    HW140816   4.889   4.760   2.652 -0.3661  0.7675  0.7929
13125SOL    HW240817   4.890   4.710   2.509 -0.6879 -0.8828  1.3493
13126SOL     OW40818   7.595   6.952  10.452  0.5868  0.1777  0.5569
13126SOL    HW140819   7.553   6.924  10.533  0.4070  2.1422  1.2055
13126SOL    HW240820   7.686   6.925  10.462  0.5311  0.2497  1.3438
13127SOL     OW40821   6.699   7.793   1.712  0.0823 -0.3235 -0.1457
13127SOL    HW140822   6.727   7.714   1.665 -1.5324 -1.2632  0.4028
13127SOL    HW240823   6.781   7.840   1.731  0.9082 -0.7949 -2.3053
13128SOL     OW40824   7.132   0.450  12.033 -0.4785  0.2050  0.1968
13128SOL    HW140825   7.081   0.371  12.016  1.1368 -1.1142  1.2570
13128SOL    HW240826   7.066   0.520  12.038 -1.8634 -0.9023 -1.5581
13129SOL     OW40827   4.541   6.214   4.489  0.1775  0.0160 -0.0211
13129SOL    HW140828   4.468   6.166   4.449 -0.9351  0.9801  0.7687
13129SOL    HW240829   4.512   6.306   4.487  1.7255  0.5161 -0.3859
13130SOL     OW40830   2.428   2.017   3.767  0.0396 -0.4088 -0.0497
13130SOL    HW140831   2.487   2.093   3.776  1.2895 -1.2739 -0.5994
13130SOL    HW240832   2.439   1.989   3.677 -1.5509 -0.3671 -0.2789
13131SOL     OW40833   7.553   2.742   7.218  0.0820 -0.6769  0.1821
13131SOL    HW140834   7.567   2.648   7.204  1.6576 -0.6700  1.4697
13131SOL    HW240835   7.457   2.751   7.220 -0.1042 -2.1737 -0.4287
13132SOL     OW40836   1.290   4.681  10.857 -0.0953  0.0616  0.5402
13132SOL    HW140837   1.220   4.649  10.913 -0.3477 -0.4510 -0.0585
13132SOL    HW240838   1.358   4.709  10.918 -1.0141  1.0509  1.1443
13133SOL     OW40839   1.714   5.407   9.387  0.5473 -0.6666 -0.1944
13133SOL    HW140840   1.703   5.315   9.411  0.2843 -1.1630 -2.0781
13133SOL    HW240841   1.715   5.407   9.291 -1.2985  1.5008 -0.2765
13134SOL     OW40842   1.016   2.603  12.038  0.1878  0.7125  0.5452
13134SOL    HW140843   1.054   2.557  12.112 -0.7269 -2.7167 -0.9449
13134SOL    HW240844   1.085   2.601  11.971 -0.0363  1.1015  0.2991
13135SOL     OW40845   2.233   1.056   6.309  0.4741  0.0157  0.1200
13135SOL    HW140846   2.160   1.022   6.361 -0.1407  2.2418  0.7988
13135SOL    HW240847   2.304   0.993   6.326 -0.6243 -1.0096  1.1765
13136SOL     OW40848   1.168   6.029   6.386  0.6093  0.1046 -0.1313
13136SOL    HW140849   1.261   6.035   6.409  0.3544  0.9898  0.7387
13136SOL    HW240850   1.125   6.005   6.468 -0.1480  1.8134  0.0081
13137SOL     OW40851   0.353   0.621   6.058  0.1648  0.0830  0.2946
13137SOL    HW140852   0.324   0.554   6.120  1.6219 -0.6909  0.1673
13137SOL    HW240853   0.436   0.588   6.023  1.1860  2.1959  0.6040
13138SOL     OW40854   2.552   2.613   3.169 -0.1177 -0.0525 -0.0932
13138SOL    HW140855   2.530   2.555   3.242 -0.7153  0.2431 -0.0299
13138SOL    HW240856   2.577   2.554   3.098  1.0747 -0.3270  0.5370
13139SOL     OW40857   7.646   4.787   0.999 -0.1651  0.2171 -0.0470
13139SOL    HW140858   7.616   4.747   0.918  0.4225 -0.6747  0.1696
13139SOL    HW240859   7.568   4.831   1.035 -0.3100  1.0504 -1.3297
13140SOL     OW40860   5.229   4.284   5.464  0.6734 -0.9107  0.3925
13140SOL    HW140861   5.204   4.350   5.399  1.9057  0.3354  1.1396
13140SOL    HW240862   5.272   4.334   5.534  0.3496 -2.3440  1.6680
13141SOL     OW40863   5.435   4.049   3.346 -0.0484  0.5378  0.0078
13141SOL    HW140864   5.452   4.143   3.333  1.5136  0.1354 -1.1315
13141SOL    HW240865   5.342   4.039   3.326  0.0048  1.6869 -0.9522
13142SOL     OW40866   7.487   7.340   4.264  0.4149  0.5192 -0.2767
13142SOL    HW140867   7.563   7.284   4.278  0.1891  0.6207  1.7129
13142SOL    HW240868   7.412   7.281   4.275  0.1601  1.2030  2.4548
13143SOL     OW40869   1.691   1.174   4.998 -0.3357  0.0990 -0.1056
13143SOL    HW140870   1.604   1.208   4.976 -2.1431 -3.9535 -0.2277
13143SOL    HW240871   1.739   1.175   4.915 -1.7356 -1.1397 -0.9936
13144SOL     OW40872   7.532   7.286   2.705  0.1318 -0.4327 -0.1332
13144SOL    HW140873   7.452   7.297   2.756  0.9506  1.5428  0.8283
13144SOL    HW240874   7.503   7.288   2.614 -0.9406 -0.1158  0.2036
13145SOL     OW40875   0.544   0.262   6.381 -0.1206 -0.3106 -0.5793
13145SOL    HW140876   0.514   0.192   6.440 -1.0554 -0.9232 -1.7397
13145SOL    HW240877   0.579   0.216   6.305  0.1867  0.4860 -0.9316
13146SOL     OW40878   1.121   6.381   0.173  0.4654 -0.1026 -0.5300
13146SOL    HW140879   1.089   6.445   0.237 -0.7876 -0.1643 -1.0621
13146SOL    HW240880   1.189   6.333   0.220  0.2944  0.5402  0.4132
13147SOL     OW40881   2.833   0.996   8.165 -0.4484  0.3203 -0.2267
13147SOL    HW140882   2.820   1.018   8.257  1.7589 -0.0537  0.2425
13147SOL    HW240883   2.861   1.078   8.124 -0.5876  0.2933 -0.3766
13148SOL     OW40884   1.558   6.256   9.560  0.4453 -0.1752  0.2955
13148SOL    HW140885   1.553   6.245   9.465 -0.5149  1.0709  0.1722
13148SOL    HW240886   1.648   6.288   9.575 -0.1827  2.2260 -0.5472
13149SOL     OW40887   0.395   1.968  11.521 -0.0996 -0.3828  0.6882
13149SOL    HW140888   0.481   2.010  11.518 -0.3002  0.0039  0.0279
13149SOL    HW240889   0.335   2.039  11.545 -0.1276 -0.8551  2.1307
13150SOL     OW40890   1.815   2.361   1.482 -0.1552 -0.8660  0.1374
13150SOL    HW140891   1.809   2.287   1.421  0.7021 -1.1998  0.4534
13150SOL    HW240892   1.756   2.427   1.444  2.7644  0.2949 -3.0077
13151SOL     OW40893   5.713   3.655  10.173  0.6637 -0.1978  0.0494
13151SOL    HW140894   5.619   3.637  10.163  0.8475 -1.1078 -0.1429
13151SOL    HW240895   5.739   3.607  10.251  0.8940  0.4023  0.3527
13152SOL     OW40896   5.880   0.135   7.194 -0.0589 -0.3074  0.6599
13152SOL    HW140897   5.945   0.072   7.161 -0.3236 -0.3229  0.1618
13152SOL    HW240898   5.879   0.205   7.129  0.1957  0.1987  1.1847
13153SOL     OW40899   5.814   6.443   0.049 -0.5879  0.7523  0.4740
13153SOL    HW140900   5.833   6.487  -0.033  3.6755 -0.5093  0.5488
13153SOL    HW240901   5.795   6.352   0.024  2.4388 -0.0734  0.7869
13154SOL     OW40902   7.596   5.345   3.991 -0.1723  0.3918  0.1791
13154SOL    HW140903   7.604   5.323   4.084 -0.9557 -1.1687 -0.0772
13154SOL    HW240904   7.686   5.348   3.959  0.1611 -4.3640 -0.0657
13155SOL     OW40905   6.018   6.014   6.639  0.2119 -0.1606 -0.4126
13155SOL    HW140906   6.006   6.109   6.641 -0.9751 -0.3068  2.1043
13155SOL    HW240907   5.953   5.983   6.576  0.7993  0.6685 -1.4733
13156SOL     OW40908   1.590   2.106   7.450 -0.1214 -0.4375  0.0796
13156SOL    HW140909   1.498   2.097   7.425  0.3626 -0.9225 -1.6224
13156SOL    HW240910   1.639   2.093   7.369  1.4564 -0.0226  0.9205
13157SOL     OW40911   3.160   2.711   0.029  0.0884  0.0056  0.1069
13157SOL    HW140912   3.155   2.756   0.114 -1.5693  0.3146 -0.1214
13157SOL    HW240913   3.150   2.618   0.051  1.4047 -0.0941  0.3820
13158SOL     OW40914   4.280   3.085   1.503  0.2373  0.5199 -0.1343
13158SOL    HW140915   4.321   3.028   1.438  0.8595  0.0720  0.6248
13158SOL    HW240916   4.192   3.103   1.468 -0.3682 -1.7351  0.0707
13159SOL     OW40917   0.859   6.395   1.569  0.1342  0.2983  0.4679
13159SOL    HW140918   0.897   6.482   1.559 -2.3186  1.2451 -2.8549
13159SOL    HW240919   0.897   6.344   1.497 -1.8925  0.2112 -0.6477
13160SOL     OW40920   3.166   5.291  10.223 -0.2062 -0.5875 -0.1263
13160SOL    HW140921   3.089   5.293  10.281  0.0281 -1.0601  0.2070
13160SOL    HW240922   3.189   5.383  10.211 -1.0966 -0.4114 -0.5976
13161SOL     OW40923   2.499   0.397   6.476  0.5637  0.2463  0.3602
13161SOL    HW140924   2.491   0.410   6.571  0.5045  1.7612  0.1800
13161SOL    HW240925   2.591   0.416   6.457  0.3344  1.0305 -0.0161
13162SOL     OW40926   6.739   6.883   3.406 -0.7771  0.3168  0.3275
13162SOL    HW140927   6.666   6.886   3.344 -0.4945 -2.8653 -0.3307
13162SOL    HW240928   6.815   6.912   3.355 -0.9321 -0.0782 -0.1324
13163SOL     OW40929   7.418   2.945   0.943 -0.1869  0.7409 -0.1115
13163SOL    HW140930   7.420   2.859   0.903  1.2735  1.0982 -0.8780
13163SOL    HW240931   7.502   2.984   0.920  0.5661  1.1522  2.9298
13164SOL     OW40932   3.466   2.781   8.144 -0.4792  0.0517  0.2207
13164SOL    HW140933   3.555   2.802   8.116 -0.7521 -0.7195 -1.3368
13164SOL    HW240934   3.410   2.821   8.077 -1.3647  1.0546  1.5078
13165SOL     OW40935   1.989   6.960  10.630 -0.5485  0.0360 -0.9520
13165SOL    HW140936   2.018   7.044  10.596  0.0903 -0.2933 -1.2478
13165SOL    HW240937   1.970   6.907  10.552 -1.6497  0.1320 -0.7674
13166SOL     OW40938   5.334   7.890   2.665  0.0393  0.0441 -0.5818
13166SOL    HW140939   5.363   7.804   2.633  1.5763  0.6390 -0.8876
13166SOL    HW240940   5.411   7.946   2.654 -1.5549  2.0235 -2.3643
13167SOL     OW40941   3.279   6.800   2.627  0.0447  0.0219  0.1555
13167SOL    HW140942   3.322   6.790   2.712  0.4042  2.0026  0.2704
13167SOL    HW240943   3.276   6.712   2.591  2.8044 -0.4483  0.8370
13168SOL     OW40944   2.511   6.153  10.919  0.1897 -0.1160 -0.2054
13168SOL    HW140945   2.463   6.123  10.996  1.9623  0.6716  1.2630
13168SOL    HW240946   2.485   6.245  10.908  0.1784 -0.1371 -0.3671
13169SOL     OW40947   1.172   4.130   3.108  0.0621 -0.0102  0.1264
13169SOL    HW140948   1.112   4.201   3.086  0.4480  0.1109 -0.5914
13169SOL    HW240949   1.236   4.169   3.168 -0.6305 -0.1720  0.9873
13170SOL     OW40950   1.741   6.103  11.012  0.1810 -0.2255  0.2560
13170SOL    HW140951   1.719   6.195  11.025 -0.5102 -0.3461 -0.0002
13170SOL    HW240952   1.814   6.087  11.072  0.7098  0.6406 -0.1391
13171SOL     OW40953   6.558   0.076   7.055 -0.1086  0.6167  0.0541
13171SOL    HW140954   6.551  -0.016   7.079 -0.2521  0.5879 -0.1040
13171SOL    HW240955   6.472   0.113   7.074 -0.1289  0.6626 -0.1236
13172SOL     OW40956   0.707   5.936   5.219  0.4243 -0.1466 -0.4106
13172SOL    HW140957   0.656   5.875   5.272  1.1990 -1.5720 -1.2428
13172SOL    HW240958   0.643   6.001   5.190 -0.1908  0.1709  1.4819
13173SOL     OW40959   2.676   0.479   7.614  0.0221  0.3091 -0.0606
13173SOL    HW140960   2.657   0.387   7.594  0.6217  0.0872  0.3336
13173SOL    HW240961   2.766   0.491   7.584  0.3403  0.4413  0.9006
13174SOL     OW40962   6.570   3.699   4.616  0.0990 -0.3829  0.2528
13174SOL    HW140963   6.487   3.738   4.590  0.8886  0.7514 -0.6399
13174SOL    HW240964   6.572   3.614   4.571 -0.3168 -0.1583 -0.1950
13175SOL     OW40965   6.972   3.200   0.345  0.1383  0.5328 -0.3947
13175SOL    HW140966   7.026   3.189   0.423 -0.7933  0.1860  0.2297
13175SOL    HW240967   6.929   3.116   0.333 -2.0115  1.4149  0.5116
13176SOL     OW40968   6.678   3.099   5.230  0.1730  0.0705 -0.0284
13176SOL    HW140969   6.678   3.040   5.305  2.3258  0.8104  0.6521
13176SOL    HW240970   6.618   3.060   5.168  1.5197 -2.9026  0.3728
13177SOL     OW40971   4.365   6.775   8.771  0.6650  0.1767  0.1002
13177SOL    HW140972   4.311   6.784   8.849 -0.4066 -1.6427 -0.3760
13177SOL    HW240973   4.431   6.844   8.780 -0.3974  1.0569  1.7844
13178SOL     OW40974   2.498   1.624   3.152 -0.1666  0.4850  0.3022
13178SOL    HW140975   2.554   1.686   3.105  0.6599  0.6639  1.4906
13178SOL    HW240976   2.435   1.679   3.199  1.6167  0.6146  2.7307
13179SOL     OW40977   0.896   4.205   9.191 -0.1552  0.4803 -0.0171
13179SOL    HW140978   0.990   4.200   9.171  0.8558  1.4938  3.7071
13179SOL    HW240979   0.875   4.298   9.184 -0.0467  0.7008  1.9414
13180SOL     OW40980   2.523   5.858   3.241  0.4035 -0.1507 -0.1481
13180SOL    HW140981   2.437   5.824   3.216 -1.3958  2.1495  2.3066
13180SOL    HW240982   2.550   5.803   3.314 -0.0818  0.4922  0.5266
13181SOL     OW40983   2.006   0.216   7.957 -0.0888 -0.0663  0.3540
13181SOL    HW140984   2.028   0.229   8.049  1.3024  0.6410 -0.0530
13181SOL    HW240985   2.088   0.191   7.916 -0.4456  0.7304 -0.8965
13182SOL     OW40986   2.133   0.586   8.465  0.5416 -0.3102  0.5262
13182SOL    HW140987   2.056   0.593   8.522 -0.0212  0.9911 -0.3409
13182SOL    HW240988   2.100   0.604   8.377  2.0872  2.1393  0.3398
13183SOL     OW40989   3.329   5.754   8.930 -0.2953 -0.3985 -0.2425
13183SOL    HW140990   3.338   5.662   8.906 -0.4988 -0.1027 -1.5334
13183SOL    HW240991   3.342   5.801   8.848  1.7753  0.8481  0.7194
13184SOL     OW40992   3.729   5.660   6.836  0.1713  0.1399  0.5047
13184SOL    HW140993   3.717   5.622   6.923  0.7262  0.1545  0.5930
13184SOL    HW240994   3.668   5.734   6.833 -0.6910 -0.5544  0.4464
13185SOL     OW40995   5.226   2.675   7.901  0.0551  0.1654 -0.2619
13185SOL    HW140996   5.253   2.764   7.881  0.6540  0.0777  0.0993
13185SOL    HW240997   5.185   2.681   7.988  0.5070  0.0244 -0.0351
13186SOL     OW40998   3.903   5.794  11.630  0.3057  0.0556  0.1513
13186SOL    HW140999   3.895   5.832  11.717  1.7956  0.7243  0.0217
13186SOL    HW241000   3.964   5.720  11.642 -1.2971 -1.3461  0.0940
13187SOL     OW41001   5.202   7.931   5.708 -0.1148  0.2025 -0.4352
13187SOL    HW141002   5.201   7.847   5.662  0.0685 -0.2340  0.3340
13187SOL    HW241003   5.237   7.993   5.644 -0.3433 -0.2867 -1.0427
13188SOL     OW41004   1.165   4.400  11.471  0.0169 -0.3186 -0.2780
13188SOL    HW141005   1.220   4.382  11.548 -0.1488  2.0277  0.4523
13188SOL    HW241006   1.077   4.413  11.506 -0.3424 -0.6014 -1.0473
13189SOL     OW41007   5.426   6.236   7.833 -0.0160 -0.1746  0.0737
13189SOL    HW141008   5.445   6.166   7.896  1.0088 -0.8708 -0.9781
13189SOL    HW241009   5.350   6.205   7.784 -1.4898  0.8324  1.6044
13190SOL     OW41010   6.417   6.436   3.927  0.2561  0.6090  0.1767
13190SOL    HW141011   6.395   6.428   3.834 -0.1131  0.6091  0.2606
13190SOL    HW241012   6.499   6.388   3.937 -0.8973 -1.4290  0.2902
13191SOL     OW41013   0.782   3.464  12.044  0.4498 -0.0770 -0.8142
13191SOL    HW141014   0.716   3.530  12.066  0.1486 -0.0156 -1.8746
13191SOL    HW241015   0.847   3.471  12.114 -0.5608  0.0018  0.1404
13192SOL     OW41016   4.189   4.612  12.041 -0.4499  0.1161 -0.1421
13192SOL    HW141017   4.110   4.628  11.989 -1.6855 -0.1740  1.5636
13192SOL    HW241018   4.210   4.697  12.079 -2.1420 -0.4316  2.2812
13193SOL     OW41019   1.360   1.087   0.909  0.6330 -0.2967 -0.0426
13193SOL    HW141020   1.304   1.015   0.880 -0.5811  0.2719  0.8138
13193SOL    HW241021   1.388   1.060   0.997  2.2791 -0.8767 -0.7018
13194SOL     OW41022   7.442   0.985   0.834  0.1822 -0.6060  0.0438
13194SOL    HW141023   7.443   1.067   0.785 -1.3303 -1.1822 -1.0139
13194SOL    HW241024   7.430   1.012   0.925  0.7220  0.3801 -0.1638
13195SOL     OW41025   3.404   1.848   0.041  0.2240  0.3104 -0.0225
13195SOL    HW141026   3.497   1.831   0.056  0.4963  0.7747 -1.1305
13195SOL    HW241027   3.369   1.868   0.129  1.0845 -0.2117  0.4473
13196SOL     OW41028   7.077   0.971  11.183 -0.0502  0.0521 -0.3778
13196SOL    HW141029   7.035   0.989  11.267 -0.6688 -0.4506 -0.5692
13196SOL    HW241030   7.030   0.895  11.148 -0.2183  0.6228 -1.4538
13197SOL     OW41031   5.262   7.261  10.671 -0.2279  0.1477 -0.0841
13197SOL    HW141032   5.192   7.309  10.627 -0.9707 -1.5525 -0.8514
13197SOL    HW241033   5.342   7.307  10.646 -1.0614  2.8971  1.8128
13198SOL     OW41034   7.633   4.643   1.637  0.1414 -0.2727  0.0163
13198SOL    HW141035   7.624   4.669   1.728 -0.2370  1.8816 -0.5795
13198SOL    HW241036   7.543   4.639   1.604  0.3535  1.4263 -0.8647
13199SOL     OW41037   5.994   5.871   5.300 -0.6729  0.3505 -0.1004
13199SOL    HW141038   6.006   5.800   5.363  0.3147  0.3659 -0.2633
13199SOL    HW241039   5.902   5.862   5.272 -0.2532 -1.6254 -1.0408
13200SOL     OW41040   4.591   0.348  11.937 -0.1008 -0.3169 -0.5585
13200SOL    HW141041   4.502   0.375  11.958 -0.4389 -0.9100 -1.2134
13200SOL    HW241042   4.612   0.395  11.856  0.6819  0.8526  0.2786
13201SOL     OW41043   0.048   2.168   5.898  0.0941 -0.2201 -0.0474
13201SOL    HW141044   0.016   2.258   5.907  1.1743  0.1262  0.3798
13201SOL    HW241045   0.108   2.171   5.823 -0.7084 -0.8384 -0.7408
13202SOL     OW41046   5.451   4.443   8.786  0.2251 -0.2005 -0.0208
13202SOL    HW141047   5.374   4.445   8.728 -0.0602 -0.5373  0.3339
13202SOL    HW241048   5.526   4.439   8.726  0.0226  1.1354 -0.3914
13203SOL     OW41049   4.458   0.532   3.549 -0.3117  0.2150 -0.0703
13203SOL    HW141050   4.523   0.471   3.583  1.9355  2.3410 -0.2707
13203SOL    HW241051   4.385   0.477   3.522  0.1221 -2.0639  2.8502
13204SOL     OW41052   6.030   2.969  11.075 -0.4633  0.2918  0.0833
13204SOL    HW141053   5.943   3.007  11.059  0.0520  1.1197 -0.8533
13204SOL    HW241054   6.053   2.927  10.993 -0.0310 -0.0358  0.3694
13205SOL     OW41055   7.675   4.061   0.421  0.0923 -0.4593  0.5622
13205SOL    HW141056   7.709   4.109   0.345 -3.6692 -0.0033 -1.0469
13205SOL    HW241057   7.753   4.034   0.468  2.6200  0.5714 -2.6192
13206SOL     OW41058   5.658   3.588   1.660 -0.8921  0.4421 -0.1430
13206SOL    HW141059   5.591   3.653   1.680 -0.6496  0.6378  0.0391
13206SOL    HW241060   5.660   3.586   1.564 -2.8888 -1.3714 -0.2241
13207SOL     OW41061   5.581   1.443   4.221 -0.0295  0.4419 -0.6466
13207SOL    HW141062   5.505   1.442   4.163  0.3464  1.7659 -1.1968
13207SOL    HW241063   5.586   1.354   4.255 -0.8145 -0.1196 -1.9211
13208SOL     OW41064   3.598   0.095   8.726  0.0978 -0.4841  0.3416
13208SOL    HW141065   3.667   0.157   8.747 -1.3123  0.4063  2.7874
13208SOL    HW241066   3.631   0.011   8.757  0.9500 -0.5123 -0.5883
13209SOL     OW41067   0.720   0.493  10.811 -0.3939  0.2506  0.0978
13209SOL    HW141068   0.764   0.508  10.895 -0.2249  0.0281  0.0531
13209SOL    HW241069   0.664   0.569  10.798  0.8400  1.0965 -0.3914
13210SOL     OW41070   7.726   3.796   5.186 -0.2666 -0.2558 -0.0467
13210SOL    HW141071   7.709   3.890   5.199  0.3946 -0.2691  1.0250
13210SOL    HW241072   7.807   3.793   5.134  0.6939 -0.2104  1.3831
13211SOL     OW41073   3.502   2.817   3.892 -0.2961 -0.0283 -0.6359
13211SOL    HW141074   3.519   2.910   3.887  0.4747 -0.2321 -2.9026
13211SOL    HW241075   3.588   2.777   3.908 -0.3951 -0.4174 -1.0525
13212SOL     OW41076   7.360   3.710  12.093  0.3059 -0.9686  0.7564
13212SOL    HW141077   7.383   3.758  12.013  0.8660 -1.6573  0.4937
13212SOL    HW241078   7.434   3.726  12.152  0.2610 -1.1024  0.8477
13213SOL     OW41079   5.809   6.790   8.439 -0.8726 -0.0205  0.2361
13213SOL    HW141080   5.729   6.753   8.478 -1.5855  2.1031  0.9392
13213SOL    HW241081   5.811   6.880   8.472  0.9790  0.4428 -1.0594
13214SOL     OW41082   3.120   6.562   3.720  0.3492 -0.4276  0.9233
13214SOL    HW141083   3.148   6.615   3.794  3.1319 -1.2850  0.5996
13214SOL    HW241084   3.201   6.543   3.672 -0.7661 -3.3170 -0.0405
13215SOL     OW41085   6.414   7.334   6.424  0.2319  0.0142  0.2356
13215SOL    HW141086   6.463   7.407   6.461 -1.4362  1.8004 -0.9515
13215SOL    HW241087   6.454   7.320   6.337  0.7444 -0.7332  0.5757
13216SOL     OW41088   5.988   5.179  10.736  0.2553 -0.1773 -0.2820
13216SOL    HW141089   6.042   5.234  10.792 -0.2968  0.4994 -0.4011
13216SOL    HW241090   6.017   5.198  10.647  0.9602 -1.0664 -0.2562
13217SOL     OW41091   5.334   1.358   6.863  0.1212 -0.1303  0.0468
13217SOL    HW141092   5.252   1.383   6.907 -0.5665 -0.3727 -1.0493
13217SOL    HW241093   5.325   1.394   6.775  0.3597 -1.7886 -0.6884
13218SOL     OW41094   3.797   0.823   7.518  0.1341 -0.5108  0.2323
13218SOL    HW141095   3.862   0.882   7.557 -0.0042  0.1959 -0.5778
13218SOL    HW241096   3.812   0.739   7.562  0.2224  0.1616  1.5273
13219SOL     OW41097   6.189   6.715   5.410 -0.0117 -0.3660 -0.5321
13219SOL    HW141098   6.144   6.649   5.463 -1.4521  1.0524  0.1118
13219SOL    HW241099   6.248   6.758   5.471 -2.2711  1.8325  0.3003
13220SOL     OW41100   7.478   0.893  10.302  0.8856  0.1347 -0.2406
13220SOL    HW141101   7.562   0.847  10.312  1.1236  0.7807  0.9787
13220SOL    HW241102   7.494   0.956  10.231  2.6426  2.6725  2.1418
13221SOL     OW41103   5.366   3.015   6.989  0.2845 -0.0025  0.0729
13221SOL    HW141104   5.307   3.052   7.055 -0.6648 -0.4314 -0.5082
13221SOL    HW241105   5.428   3.085   6.969 -0.3385  0.6342  0.3368
13222SOL     OW41106   4.095   4.931   9.487 -0.6510 -0.5911  0.1368
13222SOL    HW141107   4.152   4.869   9.441 -1.1175 -0.8855 -0.0434
13222SOL    HW241108   4.063   4.882   9.563 -1.1449 -0.6284 -0.0915
13223SOL     OW41109   5.194   6.356  10.147  0.6407  0.0758 -0.1029
13223SOL    HW141110   5.241   6.337  10.066  0.5389  1.1504 -0.4214
13223SOL    HW241111   5.102   6.343  10.125  0.6053  0.4688 -0.1942
13224SOL     OW41112   3.340   7.882  11.725  0.7985 -0.5168  0.1810
13224SOL    HW141113   3.303   7.969  11.737 -1.6474 -1.2353 -1.3620
13224SOL    HW241114   3.374   7.859  11.811  1.5797  1.9477  0.6123
13225SOL     OW41115   6.671   4.842  10.286  0.1236 -0.1302  0.1028
13225SOL    HW141116   6.589   4.890  10.301  0.3405  0.2836 -0.0211
13225SOL    HW241117   6.720   4.854  10.368  1.1348  1.7847 -0.7022
13226SOL     OW41118   2.615   5.679  10.287  0.2004  0.3085 -0.0429
13226SOL    HW141119   2.629   5.611  10.352  0.4506 -0.8017 -1.2287
13226SOL    HW241120   2.554   5.740  10.328  1.8428  0.6930  1.9661
13227SOL     OW41121   2.292   2.953  12.307 -0.2119 -0.1867  0.3625
13227SOL    HW141122   2.387   2.958  12.293 -0.2325  2.5570  0.7352
13227SOL    HW241123   2.276   3.006  12.385 -2.2696  1.2964 -0.9750
13228SOL     OW41124   5.392   6.682   3.382  0.3968  0.1851 -0.2310
13228SOL    HW141125   5.340   6.720   3.311 -0.9517  0.3868  0.8268
13228SOL    HW241126   5.362   6.591   3.387 -1.1826  0.7263  1.4841
13229SOL     OW41127   5.542   1.539   7.230  0.2329 -0.1749  0.4151
13229SOL    HW141128   5.458   1.526   7.274 -0.4815  1.1202 -0.4941
13229SOL    HW241129   5.580   1.615   7.274  1.0381 -0.8722  0.9503
13230SOL     OW41130   2.408   5.787  10.891 -0.3986  0.2722  0.0437
13230SOL    HW141131   2.417   5.719  10.957  1.5003  0.6629  0.2325
13230SOL    HW241132   2.498   5.814  10.871 -0.8654 -0.1385 -3.0267
13231SOL     OW41133   5.660   3.374   8.129 -0.3983 -0.5144  0.6480
13231SOL    HW141134   5.597   3.379   8.201 -0.2061  1.1742  0.7419
13231SOL    HW241135   5.726   3.441   8.151 -0.0708 -0.3195 -0.8467
13232SOL     OW41136   6.967   6.837  10.769  0.2217  0.4116  0.3685
13232SOL    HW141137   6.942   6.772  10.835  0.8400  0.5605  0.7570
13232SOL    HW241138   6.996   6.785  10.694  4.1326  0.0566  1.8773
13233SOL     OW41139   5.213   5.472   6.752  0.2690  0.0585 -0.1520
13233SOL    HW141140   5.243   5.407   6.816  0.2666 -1.8481 -1.9695
13233SOL    HW241141   5.157   5.423   6.692  0.0858  1.8001 -1.5077
13234SOL     OW41142   1.319   6.845   1.790  0.3212 -0.2532 -0.4670
13234SOL    HW141143   1.314   6.825   1.883  1.6605  0.3321 -0.2438
13234SOL    HW241144   1.408   6.819   1.765  0.4638  0.9117 -1.2528
13235SOL     OW41145   6.786   3.300   8.775 -0.4020  0.4519 -0.2333
13235SOL    HW141146   6.817   3.372   8.831 -0.3055 -0.6467  1.1868
13235SOL    HW241147   6.861   3.240   8.770 -0.5579  0.3276 -1.2167
13236SOL     OW41148   2.693   6.541   3.327  0.1210 -0.3381  0.0480
13236SOL    HW141149   2.714   6.451   3.304  1.1202 -0.2601  0.6072
13236SOL    HW241150   2.760   6.566   3.391 -0.7894  0.4444  0.7266
13237SOL     OW41151   6.959   2.109   9.827 -0.6136 -0.4856  0.1101
13237SOL    HW141152   6.950   2.110   9.732 -0.3480 -0.1766  0.0818
13237SOL    HW241153   7.053   2.094   9.841 -0.5854 -0.1436  0.3115
13238SOL     OW41154   3.347   7.892  10.660 -0.4509  0.0004 -0.5754
13238SOL    HW141155   3.344   7.832  10.734 -2.6780  1.4184  0.5692
13238SOL    HW241156   3.441   7.908  10.647  0.0161 -0.0794  2.1304
13239SOL     OW41157   7.828   2.781   5.626  0.4382 -0.3250  0.1963
13239SOL    HW141158   7.817   2.873   5.648  0.0011 -0.7491  1.8950
13239SOL    HW241159   7.915   2.775   5.587  0.8561  0.6625  0.9502
13240SOL     OW41160   6.513   7.109   3.455  0.3433 -0.4703 -0.1379
13240SOL    HW141161   6.429   7.069   3.432  0.2981 -0.0102 -0.8135
13240SOL    HW241162   6.557   7.121   3.371 -0.0227  1.7265 -0.0805
13241SOL     OW41163   0.683   7.607   0.515 -0.1007  0.1078  0.3853
13241SOL    HW141164   0.682   7.702   0.504  1.0169  0.0281 -0.5267
13241SOL    HW241165   0.771   7.587   0.545  1.1454 -0.9924 -3.3934
13242SOL     OW41166   3.509   6.723   6.123 -0.0424  0.7025 -0.1101
13242SOL    HW141167   3.535   6.809   6.156 -0.4267  0.8540 -0.1968
13242SOL    HW241168   3.505   6.667   6.201  3.3119 -0.0889 -0.3612
13243SOL     OW41169   1.150   7.389   8.464 -0.4642  0.5481 -0.1290
13243SOL    HW141170   1.107   7.335   8.398  1.8096  1.0899 -2.2188
13243SOL    HW241171   1.239   7.400   8.431  0.4189  1.9416  2.4391
13244SOL     OW41172   0.887   1.108  12.391 -0.1467  0.2510 -0.4046
13244SOL    HW141173   0.848   1.034  12.344  1.4787 -0.0930 -1.2799
13244SOL    HW241174   0.894   1.177  12.326 -0.0015  0.5641 -0.0575
13245SOL     OW41175   5.733   4.192  11.344 -0.1041 -0.4940  0.1398
13245SOL    HW141176   5.687   4.146  11.414  2.0484 -0.8830  1.3937
13245SOL    HW241177   5.819   4.150  11.341  0.6123  0.9896 -1.2394
13246SOL     OW41178   0.095   4.976   2.351  0.6117  0.0178 -0.2782
13246SOL    HW141179   0.177   5.004   2.392  1.6581 -1.9917 -0.8630
13246SOL    HW241180   0.123   4.929   2.273 -0.8497 -3.6541  1.2184
13247SOL     OW41181   2.899   7.932   3.619  0.6052  0.1052  0.0924
13247SOL    HW141182   2.858   8.018   3.613  0.2221 -0.1484 -1.4270
13247SOL    HW241183   2.891   7.896   3.531  1.8200 -1.0027  0.4027
13248SOL     OW41184   7.913   3.073   1.204 -0.4398  0.1954  0.2238
13248SOL    HW141185   7.906   3.143   1.139  0.3952  1.1176  1.0787
13248SOL    HW241186   7.847   3.094   1.270 -2.1910 -1.4495 -0.8925
13249SOL     OW41187   7.092   6.727   8.649  0.0046  0.1837  0.5104
13249SOL    HW141188   7.117   6.659   8.586 -1.2112  0.9062 -0.8049
13249SOL    HW241189   7.116   6.690   8.735  1.4141 -0.9511 -0.3247
13250SOL     OW41190   7.469   1.890  10.643 -0.8047 -0.2676 -0.3838
13250SOL    HW141191   7.525   1.967  10.638  0.3266 -1.1061 -1.4036
13250SOL    HW241192   7.519   1.828  10.696 -0.8779 -0.9393 -1.0852
13251SOL     OW41193   7.770   4.321   9.965  0.4290 -0.1307  0.1937
13251SOL    HW141194   7.790   4.236   9.925 -1.5748 -0.3590 -0.4494
13251SOL    HW241195   7.729   4.298  10.049  0.6966  0.2293  0.4242
13252SOL     OW41196   1.701   1.698   3.348 -0.0744  0.1214 -0.2121
13252SOL    HW141197   1.681   1.717   3.257  0.6308  2.0885  0.0007
13252SOL    HW241198   1.620   1.721   3.395  0.0283  0.4602 -0.1982
13253SOL     OW41199   7.808   1.833   0.929  0.3418  0.1464  0.0099
13253SOL    HW141200   7.819   1.756   0.872 -0.5765  0.0171 -0.0090
13253SOL    HW241201   7.868   1.817   1.002  1.6591  0.3882 -0.9675
13254SOL     OW41202   5.178   1.475   2.450  0.6322  0.4782 -0.3503
13254SOL    HW141203   5.209   1.423   2.525  0.9861 -1.2571 -1.6352
13254SOL    HW241204   5.125   1.544   2.490  0.7050 -0.4544  1.5044
13255SOL     OW41205   4.874   3.954   1.061 -0.2815 -0.0403  0.2514
13255SOL    HW141206   4.854   3.983   0.972 -0.9341 -0.6868  0.1710
13255SOL    HW241207   4.934   3.881   1.050 -0.1989  0.0130  0.3486
13256SOL     OW41208   2.247   1.598   2.916 -0.1993 -0.1163  0.0826
13256SOL    HW141209   2.225   1.535   2.985  3.3145 -0.8303  0.7470
13256SOL    HW241210   2.262   1.544   2.839 -1.7850  0.4574 -0.6675
13257SOL     OW41211   0.170   6.136   7.263  0.1864 -0.7345  0.5051
13257SOL    HW141212   0.084   6.177   7.272  0.0784 -0.4819 -1.3413
13257SOL    HW241213   0.151   6.042   7.266 -0.2266 -0.6855 -0.3694
13258SOL     OW41214   6.437   1.284   3.004  0.3990  0.0989 -0.5218
13258SOL    HW141215   6.511   1.268   3.061  1.1715 -0.4961 -1.6644
13258SOL    HW241216   6.371   1.324   3.061  1.9384  1.5708  0.3142
13259SOL     OW41217   5.028   5.935  11.611  0.2813  0.9793  0.1939
13259SOL    HW141218   4.975   5.933  11.531  1.3330 -1.5518 -0.5474
13259SOL    HW241219   5.079   6.016  11.603  0.2871  0.8397 -1.6597
13260SOL     OW41220   1.398   0.472  11.446 -0.7301  0.1485 -0.3215
13260SOL    HW141221   1.453   0.535  11.491 -0.6200 -0.3432  0.2365
13260SOL    HW241222   1.459   0.411  11.405 -0.8476 -0.3287  0.1987
13261SOL     OW41223   6.874   1.126   3.515 -0.2021  0.8384  0.1745
13261SOL    HW141224   6.781   1.134   3.536 -0.4471  1.1843 -0.9798
13261SOL    HW241225   6.909   1.071   3.585 -1.4044  0.1413  0.2661
13262SOL     OW41226   7.698   5.275   7.845  0.1622  0.2479  0.0853
13262SOL    HW141227   7.677   5.264   7.752  0.0471 -0.6233  0.2005
13262SOL    HW241228   7.765   5.209   7.862 -0.6688 -0.4301  0.8850
13263SOL     OW41229   7.622   1.618  11.287  0.1711 -0.1991  0.0534
13263SOL    HW141230   7.542   1.654  11.324 -0.6331 -1.3173 -0.5008
13263SOL    HW241231   7.693   1.659  11.336 -0.7577  0.4538  0.8861
13264SOL     OW41232   0.278   3.393   0.086  0.0681  0.2398  0.0309
13264SOL    HW141233   0.357   3.340   0.095  0.3621  0.8834  1.6546
13264SOL    HW241234   0.216   3.337   0.040  1.5734 -0.1450 -1.6268
13265SOL     OW41235   7.260   5.795   0.912 -0.7489  0.3139  0.1194
13265SOL    HW141236   7.287   5.810   0.821  0.0346  0.8736  0.4325
13265SOL    HW241237   7.265   5.700   0.922  0.9359  0.3573  0.0756
13266SOL     OW41238   4.925   6.365  11.655 -0.1448  0.5058 -0.2576
13266SOL    HW141239   4.906   6.335  11.744  0.7739 -2.1760 -0.8635
13266SOL    HW241240   4.859   6.322  11.600 -1.2010  2.7522 -0.8521
13267SOL     OW41241   0.298   1.863   6.501 -0.5013  0.4178  0.1653
13267SOL    HW141242   0.380   1.910   6.515 -0.1594 -0.4900  1.3926
13267SOL    HW241243   0.253   1.868   6.586 -1.3177  0.1587 -0.2440
13268SOL     OW41244   3.357   2.358   0.162  0.1173 -0.2221 -0.2745
13268SOL    HW141245   3.332   2.437   0.211  0.3432 -0.4160  0.1503
13268SOL    HW241246   3.447   2.375   0.134 -0.8785  1.0909 -3.0162
13269SOL     OW41247   1.316   1.320   7.180  0.0966  0.1334 -0.5506
13269SOL    HW141248   1.280   1.236   7.211 -2.0143  0.2579 -2.3631
13269SOL    HW241249   1.298   1.381   7.251  1.6459 -0.8882  0.7938
13270SOL     OW41250   1.243   3.716   9.056  0.9393  0.4083  0.6502
13270SOL    HW141251   1.202   3.787   9.006 -0.4156 -0.0329  1.0873
13270SOL    HW241252   1.335   3.719   9.031  1.3024  3.3995  1.8856
13271SOL     OW41253   5.850   1.234   5.591 -0.4126 -0.2485  0.0074
13271SOL    HW141254   5.773   1.198   5.634 -0.3761 -1.6541 -1.0267
13271SOL    HW241255   5.921   1.220   5.654 -0.6393 -0.8254  0.1365
13272SOL     OW41256   3.297   5.025   8.525 -0.2344  0.3107 -0.2228
13272SOL    HW141257   3.265   5.094   8.584  0.0111  1.6777 -1.6416
13272SOL    HW241258   3.290   4.945   8.577  1.2652  1.6111  2.1831
13273SOL     OW41259   0.055   6.463   2.546  0.5833 -0.1812 -0.7616
13273SOL    HW141260   0.017   6.375   2.543 -1.8029  0.7617 -0.6208
13273SOL    HW241261   0.132   6.458   2.489 -0.1628 -2.0660 -1.6908
13274SOL     OW41262   1.798   7.473   5.065 -0.1632  0.0376 -0.3552
13274SOL    HW141263   1.719   7.479   5.119  1.1103  1.5205  1.4251
13274SOL    HW241264   1.800   7.381   5.038 -2.3388 -0.1058 -0.2513
13275SOL     OW41265   3.634   5.989   6.229 -0.2728  0.0239  0.5601
13275SOL    HW141266   3.633   5.897   6.255 -0.5261  0.0882  0.7798
13275SOL    HW241267   3.711   5.997   6.172 -1.4779 -0.8393 -1.3041
13276SOL     OW41268   3.647   1.518   3.325 -0.2418  0.0539 -0.4044
13276SOL    HW141269   3.604   1.457   3.385 -0.4150  1.1726  0.6574
13276SOL    HW241270   3.631   1.481   3.238 -2.8619  0.0746 -0.0301
13277SOL     OW41271   2.003   7.474   0.380  0.1184  0.1215 -0.2818
13277SOL    HW141272   2.092   7.500   0.354  0.5900  0.6085  1.6341
13277SOL    HW241273   1.957   7.458   0.297  2.6342 -2.4045 -1.3772
13278SOL     OW41274   2.960   4.630  12.418 -0.4026  0.1325 -0.0077
13278SOL    HW141275   2.901   4.643  12.492 -0.1144 -1.3941  0.5279
13278SOL    HW241276   2.981   4.536  12.421 -0.2330  0.0803 -1.9134
13279SOL     OW41277   0.030   3.225   0.311 -0.4216 -0.2094  0.1094
13279SOL    HW141278   0.065   3.283   0.378 -0.8083  1.2584 -0.9128
13279SOL    HW241279  -0.032   3.169   0.358 -0.7697  0.8651  0.9630
13280SOL     OW41280   2.166   5.430   4.589  0.0062  0.4518 -0.1265
13280SOL    HW141281   2.111   5.408   4.514 -1.2725  2.1316  0.2422
13280SOL    HW241282   2.110   5.487   4.643  1.2219  0.0885  1.6043
13281SOL     OW41283   1.136   1.459   9.891  0.9607 -0.1192  0.1616
13281SOL    HW141284   1.188   1.527   9.933  0.5316  0.1739  0.2274
13281SOL    HW241285   1.158   1.465   9.798 -0.1784  1.1272 -0.0650
13282SOL     OW41286   1.694   2.243   1.925 -0.3587  0.5832 -0.1509
13282SOL    HW141287   1.646   2.161   1.915 -0.8563  0.9582 -0.8764
13282SOL    HW241288   1.634   2.310   1.892  0.2325  1.1848 -0.0172
13283SOL     OW41289   1.986   7.896   9.254 -0.4935 -0.0080  0.0642
13283SOL    HW141290   1.974   7.856   9.340  0.1670 -2.6824 -0.9803
13283SOL    HW241291   2.068   7.945   9.261 -0.5366 -0.0553  0.9844
13284SOL     OW41292   0.239   1.843  10.896  0.6538 -0.5687 -0.0034
13284SOL    HW141293   0.160   1.838  10.843 -0.1452 -2.2204  1.2591
13284SOL    HW241294   0.310   1.819  10.835  0.3598  1.6991 -1.3444
13285SOL     OW41295   5.263   7.795  10.365  0.0614 -0.5956 -0.5662
13285SOL    HW141296   5.171   7.769  10.373 -1.0747  2.9393 -0.5098
13285SOL    HW241297   5.283   7.838  10.448  1.7278 -1.0965 -0.6765
13286SOL     OW41298   0.458   2.540  11.882 -0.1213 -0.0446  0.6004
13286SOL    HW141299   0.365   2.526  11.863  0.5539 -0.6611 -2.8074
13286SOL    HW241300   0.492   2.453  11.904  0.0695 -0.2523 -0.4634
13287SOL     OW41301   0.260   2.227  12.204  0.0607  0.2510 -0.5128
13287SOL    HW141302   0.273   2.136  12.178  0.2948 -0.3792  1.6415
13287SOL    HW241303   0.187   2.257  12.150 -0.2653 -1.3228 -1.0078
13288SOL     OW41304   5.907   4.760   8.263 -0.1997 -0.1250  0.0007
13288SOL    HW141305   5.839   4.694   8.275  0.1853 -0.5861 -0.2954
13288SOL    HW241306   5.951   4.734   8.182 -0.6863  1.0692 -0.6724
13289SOL     OW41307   3.287   4.086   4.118  0.2029  0.0649  0.3818
13289SOL    HW141308   3.193   4.102   4.114  0.5602  2.9034  1.0361
13289SOL    HW241309   3.310   4.052   4.032 -1.3476 -0.3880  0.1229
13290SOL     OW41310   0.834   0.517  10.049 -0.6810 -0.3128 -0.3505
13290SOL    HW141311   0.903   0.458  10.080 -2.0536 -2.1429 -0.6621
13290SOL    HW241312   0.753   0.480  10.082 -1.5491  2.0882  0.4607
13291SOL     OW41313   0.057   3.615   9.652  0.0741  0.0478  0.5261
13291SOL    HW141314   0.007   3.539   9.682  0.5851 -0.3260  0.4440
13291SOL    HW241315   0.068   3.669   9.730 -1.3067  0.6298  0.3448
13292SOL     OW41316   5.942   6.813   9.311 -0.2313 -0.3109  0.1006
13292SOL    HW141317   5.995   6.824   9.389  0.8963 -0.0196 -0.6777
13292SOL    HW241318   5.900   6.898   9.298  1.4147  0.4168 -0.8739
13293SOL     OW41319   2.526   2.036   8.547  0.6150  0.3302 -0.3449
13293SOL    HW141320   2.475   2.117   8.553 -0.7969 -0.3375 -2.3044
13293SOL    HW241321   2.543   2.026   8.453  1.1597 -1.4133 -0.0857
13294SOL     OW41322   2.392   1.025  10.592 -0.6022 -0.1752  0.3151
13294SOL    HW141323   2.369   1.081  10.518  0.0416 -0.5139 -0.1574
13294SOL    HW241324   2.377   0.936  10.559 -0.8231 -0.3062  0.7729
13295SOL     OW41325   7.262   0.870   6.521 -0.2730  0.3095  0.2891
13295SOL    HW141326   7.230   0.862   6.611 -1.4922 -0.4924 -0.1909
13295SOL    HW241327   7.351   0.904   6.530  0.3174 -1.4723  1.9089
13296SOL     OW41328   2.729   1.915  10.097  0.4875  0.0210  0.3573
13296SOL    HW141329   2.739   1.902  10.002  1.7469 -0.1139  0.4938
13296SOL    HW241330   2.781   1.845  10.136  0.3983  0.3955  1.1507
13297SOL     OW41331   7.303   2.376  10.818 -0.0902 -0.5406 -0.1283
13297SOL    HW141332   7.296   2.282  10.834 -0.3152 -0.5681 -0.3717
13297SOL    HW241333   7.396   2.391  10.803 -0.0400 -0.7086  0.0099
13298SOL     OW41334   2.422   1.230  11.946 -0.2429  0.0124  0.1607
13298SOL    HW141335   2.437   1.183  12.029  0.1226  2.6579  1.7049
13298SOL    HW241336   2.328   1.222  11.931 -0.1627 -1.3432  0.2500
13299SOL     OW41337   3.631   2.821   4.573 -0.1939  0.1891 -0.1230
13299SOL    HW141338   3.625   2.728   4.597 -3.2007  0.9018  2.5275
13299SOL    HW241339   3.657   2.865   4.654  0.4376  1.7567 -1.1459
13300SOL     OW41340   2.791   5.418   0.168  0.7166  0.2117  0.0407
13300SOL    HW141341   2.712   5.369   0.192  0.5499  0.3210 -0.2672
13300SOL    HW241342   2.853   5.351   0.140 -0.0179  0.2365 -1.8218
13301SOL     OW41343   6.870   2.662   8.500  0.1181 -0.2552 -0.3837
13301SOL    HW141344   6.778   2.683   8.510 -0.4353 -2.9119  1.3326
13301SOL    HW241345   6.910   2.689   8.583  0.6997  0.1217 -0.7856
13302SOL     OW41346   2.288   4.435   0.619  0.3255  0.3089  0.0920
13302SOL    HW141347   2.331   4.415   0.702 -1.9477  0.6409  1.4313
13302SOL    HW241348   2.207   4.480   0.644 -0.5670  0.1813 -2.2907
13303SOL     OW41349   4.658   0.132  11.005  0.0278  0.1369 -0.1840
13303SOL    HW141350   4.626   0.048  11.037 -0.4046  0.3006 -0.1792
13303SOL    HW241351   4.753   0.126  11.012 -0.0309 -0.0560  0.5871
13304SOL     OW41352   1.787   1.099  11.690 -0.4313 -0.6394 -0.2478
13304SOL    HW141353   1.810   1.035  11.757  0.8727 -0.4964 -0.5133
13304SOL    HW241354   1.863   1.099  11.631 -0.2036  1.4038 -0.0335
13305SOL     OW41355   2.111   1.388   8.121  0.4340  0.2684  0.0201
13305SOL    HW141356   2.087   1.472   8.161 -1.0569 -0.5786  0.9990
13305SOL    HW241357   2.154   1.340   8.192  0.0009 -0.3175 -0.1065
13306SOL     OW41358   0.860   0.418   4.879 -0.0658 -0.0708  0.1813
13306SOL    HW141359   0.822   0.503   4.861  0.7819  0.1810 -0.5153
13306SOL    HW241360   0.862   0.412   4.974 -1.2338  0.1650  0.2370
13307SOL     OW41361   3.363   7.499   6.925  0.0809 -0.1288  0.5128
13307SOL    HW141362   3.304   7.531   6.856 -1.0999  0.1335  1.5997
13307SOL    HW241363   3.338   7.408   6.937 -0.1868  0.0053  1.0305
13308SOL     OW41364   1.500   4.118   6.891 -0.1605 -0.2242  0.6758
13308SOL    HW141365   1.422   4.155   6.850  0.6050  0.7353  0.0481
13308SOL    HW241366   1.475   4.028   6.913 -1.3344 -0.0295  0.2048
13309SOL     OW41367   7.449   4.558   6.837 -0.3782  0.5311 -0.3494
13309SOL    HW141368   7.377   4.612   6.805  0.5810  0.9474 -1.9606
13309SOL    HW241369   7.513   4.559   6.765  0.5610 -1.0813  0.4059
13310SOL     OW41370   2.702   7.862   4.669  0.1440  0.1022  0.0080
13310SOL    HW141371   2.686   7.768   4.675 -0.3329  0.2472  1.3515
13310SOL    HW241372   2.796   7.871   4.681  0.2789 -0.2278 -0.7125
13311SOL     OW41373   3.855   6.006  11.114 -0.3652 -0.0247 -0.2003
13311SOL    HW141374   3.863   6.072  11.045  0.4454 -0.7677 -0.8394
13311SOL    HW241375   3.924   5.943  11.095  1.1219  0.6827  2.3711
13312SOL     OW41376   3.245   5.978   4.747 -0.1652 -0.0018 -0.4068
13312SOL    HW141377   3.172   5.925   4.716 -0.3683 -0.6768  1.1341
13312SOL    HW241378   3.233   5.982   4.842  1.0395  1.0278 -0.2715
13313SOL     OW41379   7.926   0.133  12.352  0.1266  0.3349  0.3294
13313SOL    HW141380   7.987   0.204  12.373 -0.1111  0.8961 -0.7965
13313SOL    HW241381   7.863   0.173  12.293 -0.6042 -0.5674  0.4823
13314SOL     OW41382   2.406   1.498  10.312  0.0195  0.7250 -0.1398
13314SOL    HW141383   2.432   1.460  10.396  0.6520  0.1017 -0.6111
13314SOL    HW241384   2.472   1.566  10.295 -0.2575  1.0296 -0.0152
13315SOL     OW41385   1.726   4.275  10.337  0.1126  0.3494 -0.0335
13315SOL    HW141386   1.796   4.340  10.345  0.3398  0.1554 -0.3977
13315SOL    HW241387   1.667   4.293  10.410  1.2775 -0.3585  1.1188
13316SOL     OW41388   2.018   7.786   1.798 -0.7660 -0.7307  0.4052
13316SOL    HW141389   2.010   7.837   1.879 -1.3100  1.1724 -0.7961
13316SOL    HW241390   2.072   7.840   1.740 -3.3746 -0.2590 -1.7912
13317SOL     OW41391   6.137   5.569   7.158  0.0931 -0.2362 -0.6165
13317SOL    HW141392   6.217   5.559   7.209  0.1200  0.5050 -0.5091
13317SOL    HW241393   6.093   5.484   7.166  0.1700 -0.1864  0.5179
13318SOL     OW41394   6.734   2.495   9.195  0.2382  0.0321  0.4107
13318SOL    HW141395   6.752   2.415   9.145  1.1495 -1.1382  2.4951
13318SOL    HW241396   6.794   2.560   9.159 -0.3089 -0.2632 -1.1141
13319SOL     OW41397   4.426   2.486   4.454  0.2365 -0.4087 -0.3980
13319SOL    HW141398   4.480   2.564   4.445 -0.7794  0.5724  1.4024
13319SOL    HW241399   4.425   2.468   4.548 -0.5893 -1.8480 -0.6438
13320SOL     OW41400   7.068   6.171   8.475  0.1504 -0.4648 -0.0695
13320SOL    HW141401   7.013   6.116   8.419 -2.0482  0.9356  0.5495
13320SOL    HW241402   7.037   6.260   8.458  2.2812  0.4099  0.3463
13321SOL     OW41403   6.484   7.872   9.667 -0.1974 -0.0835  0.1862
13321SOL    HW141404   6.475   7.783   9.701  0.7342 -1.2182 -2.3274
13321SOL    HW241405   6.430   7.925   9.726 -0.3258 -2.1775  2.1130
13322SOL     OW41406   6.834   7.254   2.433 -0.4318  0.4852  0.3713
13322SOL    HW141407   6.929   7.269   2.429 -0.5940  1.6093  0.5276
13322SOL    HW241408   6.815   7.255   2.527 -0.4899 -0.5620  0.3858
13323SOL     OW41409   3.359   2.494   2.152 -0.0868  0.0026  0.0800
13323SOL    HW141410   3.370   2.533   2.065  2.4041 -0.4919  0.1166
13323SOL    HW241411   3.436   2.523   2.201 -0.4171 -1.3990  1.4858
13324SOL     OW41412   0.913   7.725   8.830  0.2981  0.0274 -0.8716
13324SOL    HW141413   0.848   7.787   8.863 -0.6373 -1.2823 -0.1913
13324SOL    HW241414   0.990   7.779   8.811 -0.6017  1.4405 -0.6418
13325SOL     OW41415   7.776   0.813   8.357 -0.0208  0.1955 -0.4445
13325SOL    HW141416   7.825   0.888   8.321 -1.1066  0.6095 -1.0975
13325SOL    HW241417   7.795   0.742   8.295  0.8021 -0.0176  0.0336
13326SOL     OW41418   4.197   3.742   7.396 -0.1980  0.1364 -0.1643
13326SOL    HW141419   4.238   3.665   7.355  0.5222  0.0337  0.7181
13326SOL    HW241420   4.142   3.779   7.327 -1.2687 -1.6746 -0.3359
13327SOL     OW41421   6.313   0.861   0.777  0.0794  1.0551 -0.1800
13327SOL    HW141422   6.221   0.838   0.775  0.1287  0.6963  1.0355
13327SOL    HW241423   6.357   0.782   0.807  0.7350  1.3769 -0.2683
13328SOL     OW41424   0.725   3.519   0.145  0.1575 -0.1215 -0.5666
13328SOL    HW141425   0.639   3.561   0.138  0.2797  0.2992  0.3876
13328SOL    HW241426   0.786   3.582   0.106  0.6531  1.6446  2.7308
13329SOL     OW41427   0.890   2.248   6.851  0.1577  0.4060 -0.0615
13329SOL    HW141428   0.819   2.201   6.894  0.2565 -0.8204 -1.1711
13329SOL    HW241429   0.847   2.322   6.808  0.0716  1.6949  2.1218
13330SOL     OW41430   7.654   2.432   3.687  0.0423 -0.1471 -0.1406
13330SOL    HW141431   7.588   2.483   3.642  2.1265  1.3788 -1.6398
13330SOL    HW241432   7.715   2.497   3.722 -0.4754 -1.3425  3.4286
13331SOL     OW41433   2.210   7.488   9.928  0.0185 -0.3318  0.4305
13331SOL    HW141434   2.259   7.444   9.858 -2.4546 -0.6743 -1.2075
13331SOL    HW241435   2.151   7.421   9.962 -0.9660  0.6378  0.6968
13332SOL     OW41436   4.155   2.607  10.594  0.8557  0.1170  0.3779
13332SOL    HW141437   4.240   2.569  10.571  0.6808 -0.6856  1.0054
13332SOL    HW241438   4.122   2.550  10.663 -0.7190 -0.2592 -0.6486
13333SOL     OW41439   3.631   6.098   2.838 -0.6734 -0.4012 -0.2777
13333SOL    HW141440   3.605   6.093   2.746  0.1999 -0.6906 -0.5206
13333SOL    HW241441   3.584   6.174   2.872  0.9896  1.3409 -1.6412
13334SOL     OW41442   4.324   4.818  12.160 -0.2046  0.3983 -0.0601
13334SOL    HW141443   4.416   4.823  12.133 -0.8295  0.0561 -2.4753
13334SOL    HW241444   4.292   4.908  12.151 -0.3260  0.3480 -0.1326
13335SOL     OW41445   7.001   1.657   8.535 -0.7060  0.5934 -0.2675
13335SOL    HW141446   7.093   1.663   8.506 -1.1327  1.5498 -1.5419
13335SOL    HW241447   6.951   1.694   8.462 -2.1315 -0.0706  0.3404
13336SOL     OW41448   1.757   7.643   4.303  0.5709  0.6195  0.0950
13336SOL    HW141449   1.678   7.595   4.281  0.2739  2.0065 -2.2496
13336SOL    HW241450   1.812   7.635   4.225  1.8382  1.4398  0.8619
13337SOL     OW41451   0.841   3.602  11.319  0.1063  0.0658 -0.2988
13337SOL    HW141452   0.863   3.563  11.404  0.1100  1.3529  0.3051
13337SOL    HW241453   0.761   3.556  11.293 -0.0228 -0.1928  0.5144
13338SOL     OW41454   4.356   3.406   2.314 -0.4423  0.2562  0.0886
13338SOL    HW141455   4.313   3.352   2.249  0.3354  0.0376 -0.2624
13338SOL    HW241456   4.322   3.374   2.398 -1.5468  0.6333 -0.2005
13339SOL     OW41457   2.423   4.648   2.399 -0.4439  0.1993  0.2203
13339SOL    HW141458   2.493   4.704   2.366 -3.6018  3.4899 -1.5885
13339SOL    HW241459   2.394   4.597   2.323 -1.4626  0.6055  0.3155
13340SOL     OW41460   5.635   7.805   4.239  0.0983  0.1886 -0.0335
13340SOL    HW141461   5.643   7.717   4.201  0.3563 -0.1738  0.8430
13340SOL    HW241462   5.724   7.830   4.262 -0.3048 -0.9119  3.1941
13341SOL     OW41463   6.737   7.445   2.290 -0.4457  0.2939  0.3015
13341SOL    HW141464   6.693   7.510   2.345 -0.1537  0.4834  0.3166
13341SOL    HW241465   6.770   7.379   2.352 -1.7613 -0.5042  0.1937
13342SOL     OW41466   1.587   0.319   0.509 -0.4905  0.2535  0.1956
13342SOL    HW141467   1.607   0.354   0.596 -0.5173 -1.3185  0.8625
13342SOL    HW241468   1.637   0.238   0.504 -0.7384  0.1669 -1.1482
13343SOL     OW41469   6.609   0.190   5.255 -0.2165  0.0088  0.0585
13343SOL    HW141470   6.547   0.232   5.195 -0.1057  1.0665  0.6669
13343SOL    HW241471   6.668   0.141   5.198 -0.7232  0.1775 -0.6238
13344SOL     OW41472   5.327   5.161   1.091  0.0501 -0.1489 -0.4072
13344SOL    HW141473   5.380   5.170   1.170  0.1180 -0.0820 -0.4603
13344SOL    HW241474   5.382   5.111   1.031  0.5535  0.9876 -0.9190
13345SOL     OW41475   6.131   3.965   5.640  0.0100 -0.6917 -0.5572
13345SOL    HW141476   6.092   3.878   5.637 -1.6893  0.0289 -0.9839
13345SOL    HW241477   6.126   3.996   5.549  1.3768 -0.4606 -0.5688
13346SOL     OW41478   5.096   6.997   9.439 -0.1812 -0.4951  0.0192
13346SOL    HW141479   5.074   7.088   9.420 -2.0912 -0.8432  0.3470
13346SOL    HW241480   5.030   6.968   9.501  2.1339 -1.2690  2.3271
13347SOL     OW41481   0.606   1.875   3.009  0.2818 -1.2624  0.4523
13347SOL    HW141482   0.571   1.962   2.989  1.2038 -1.0314 -0.1840
13347SOL    HW241483   0.670   1.889   3.079  2.0868 -1.0658 -1.1609
13348SOL     OW41484   3.308   6.551   5.203  0.2780 -0.0508 -0.2400
13348SOL    HW141485   3.353   6.626   5.241  1.7449 -1.6014  1.2524
13348SOL    HW241486   3.377   6.487   5.185 -0.8670 -0.8853 -1.9225
13349SOL     OW41487   0.013   3.788   5.027 -0.4423 -0.5376 -0.1745
13349SOL    HW141488   0.064   3.869   5.025 -0.7073 -0.3053  1.3701
13349SOL    HW241489   0.038   3.743   4.946  1.4533  0.0143  0.0358
13350SOL     OW41490   2.004   3.904   4.392  0.5137  0.2596 -0.4390
13350SOL    HW141491   2.037   3.976   4.445  0.3279 -0.3001  0.4578
13350SOL    HW241492   1.909   3.918   4.388  0.2853 -0.7041  0.9582
13351SOL     OW41493   1.508   1.364  10.858 -0.4288 -0.1431  0.6245
13351SOL    HW141494   1.430   1.349  10.804 -0.4558  0.5274  0.4688
13351SOL    HW241495   1.497   1.454  10.892 -0.7320 -0.7586  2.2620
13352SOL     OW41496   0.390   3.053   7.996 -0.1333 -0.3502 -0.2822
13352SOL    HW141497   0.372   3.094   8.080 -0.6677  0.0341 -0.5824
13352SOL    HW241498   0.346   2.968   8.001 -2.6481  0.7914 -1.2199
13353SOL     OW41499   1.747   3.004   9.021 -1.1750 -0.1318  0.4723
13353SOL    HW141500   1.679   2.951   9.063 -1.8407  0.9983  0.8717
13353SOL    HW241501   1.802   3.034   9.093 -1.2823  0.3706  0.3518
13354SOL     OW41502   7.353   2.804   0.465  0.3800  0.1357  0.2725
13354SOL    HW141503   7.387   2.875   0.519  0.5577  0.0917  0.2192
13354SOL    HW241504   7.422   2.787   0.401  0.8370 -0.8553  0.9936
13355SOL     OW41505   1.893   0.895   1.960  0.2044 -0.2031 -0.2199
13355SOL    HW141506   1.849   0.935   2.034 -0.6811 -0.8493 -0.3758
13355SOL    HW241507   1.836   0.822   1.935  0.6571 -0.2072 -1.3128
13356SOL     OW41508   7.148   0.613   7.947 -0.1760 -0.1204  0.3986
13356SOL    HW141509   7.243   0.620   7.954 -0.2354  0.9262  0.3114
13356SOL    HW241510   7.127   0.530   7.991  0.5666  0.6518  2.3502
13357SOL     OW41511   6.788   4.886   1.659 -0.1761 -0.0527  0.0649
13357SOL    HW141512   6.772   4.977   1.684 -0.8197 -1.0408  4.0544
13357SOL    HW241513   6.882   4.875   1.668 -0.0856  0.2305 -0.5129
13358SOL     OW41514   0.999   5.877   5.578 -0.5048  0.4160  0.0105
13358SOL    HW141515   1.038   5.809   5.634  1.1442  0.6513 -0.8008
13358SOL    HW241516   0.930   5.831   5.530 -1.7198  0.1256  1.9258
13359SOL     OW41517   3.046   3.589  10.367 -0.2964  0.4430  0.4673
13359SOL    HW141518   3.133   3.617  10.340 -0.6593  0.7604 -0.4381
13359SOL    HW241519   3.060   3.506  10.413  0.4024 -0.0084 -0.5251
13360SOL     OW41520   2.282   5.357   3.813  0.7227  0.0377 -0.6460
13360SOL    HW141521   2.352   5.419   3.832  0.0103  0.9774 -1.0013
13360SOL    HW241522   2.203   5.411   3.805  0.0442 -0.9368 -0.7583
13361SOL     OW41523   7.791   3.377   5.920  0.4134 -0.5571  0.6476
13361SOL    HW141524   7.851   3.336   5.857 -0.0561 -2.0788  1.1331
13361SOL    HW241525   7.708   3.331   5.906 -0.0559  0.0340  1.4466
13362SOL     OW41526   1.469   0.448   9.459  0.1036  0.6302 -0.0959
13362SOL    HW141527   1.461   0.371   9.402 -0.8532  0.0149  0.8225
13362SOL    HW241528   1.428   0.421   9.541  0.8606  1.7153  0.6705
13363SOL     OW41529   3.121   6.660  10.118  0.4766 -0.1924  0.6748
13363SOL    HW141530   3.150   6.569  10.123  1.2149  0.0990  2.3072
13363SOL    HW241531   3.189   6.704  10.068  0.6841 -0.3316  0.8307
13364SOL     OW41532   6.514   6.343   6.443  0.1300 -0.2382 -0.1059
13364SOL    HW141533   6.431   6.336   6.396  0.2461 -1.2639 -0.1919
13364SOL    HW241534   6.515   6.433   6.476 -0.2885  0.2730 -1.4162
13365SOL     OW41535   6.479   6.402   7.031  0.1977 -0.3992 -0.0052
13365SOL    HW141536   6.464   6.383   6.939  1.8392 -1.9890 -0.0009
13365SOL    HW241537   6.418   6.345   7.078 -0.7264  0.4997 -0.0566
13366SOL     OW41538   0.211   4.908   4.323 -0.4623 -0.0330  0.4560
13366SOL    HW141539   0.223   4.994   4.284 -2.2695  0.6245  1.2745
13366SOL    HW241540   0.255   4.848   4.262 -0.6064  1.2810 -0.9872
13367SOL     OW41541   7.164   6.553  11.712 -0.2834 -0.1480 -0.1466
13367SOL    HW141542   7.136   6.479  11.657  1.9841 -0.2517 -1.2885
13367SOL    HW241543   7.238   6.518  11.763  0.8122  1.2835 -0.6900
13368SOL     OW41544   4.097   5.549   3.183 -0.1033  0.3860  0.6819
13368SOL    HW141545   4.010   5.582   3.159  0.8296  1.8037 -1.0124
13368SOL    HW241546   4.144   5.626   3.215  0.9954 -0.0333  0.1286
13369SOL     OW41547   5.953   7.479  10.529  0.1732  0.0146  0.1828
13369SOL    HW141548   5.950   7.513  10.440  0.1220  1.6167  0.7631
13369SOL    HW241549   5.918   7.390  10.523 -2.2200  0.9704 -0.9912
13370SOL     OW41550   0.994   2.234   9.158 -0.0181 -0.2447 -0.5718
13370SOL    HW141551   1.031   2.322   9.166  0.8863 -0.6800  0.2596
13370SOL    HW241552   0.958   2.215   9.244 -1.0318 -0.3453 -1.0083
13371SOL     OW41553   5.403   5.672   1.046 -0.8675  0.1557  0.3910
13371SOL    HW141554   5.359   5.751   1.015  0.6838  1.1599  0.6510
13371SOL    HW241555   5.455   5.700   1.121  1.1466 -0.6608 -0.5972
13372SOL     OW41556   2.631   6.803   5.460  0.0848  0.3238 -0.0287
13372SOL    HW141557   2.695   6.760   5.404 -0.3417  0.7004 -0.8147
13372SOL    HW241558   2.562   6.831   5.401 -0.4178  0.6522  0.6979
13373SOL     OW41559   7.359   0.514  10.531 -0.3685  0.5811 -0.5304
13373SOL    HW141560   7.367   0.419  10.529  2.3964  0.7051  0.7807
13373SOL    HW241561   7.395   0.542  10.447 -1.1421  0.5108 -0.8978
13374SOL     OW41562   2.431   0.314   1.647  0.5659  0.0799 -0.5094
13374SOL    HW141563   2.469   0.342   1.730 -1.7904  1.1291  0.2960
13374SOL    HW241564   2.424   0.219   1.654  0.5095  0.1529  0.4205
13375SOL     OW41565   6.834   1.988   6.140 -0.1956  0.1370 -0.0201
13375SOL    HW141566   6.863   2.028   6.058 -1.7833  0.1567 -0.6083
13375SOL    HW241567   6.761   1.931   6.115  0.8509 -1.7971  1.0486
13376SOL     OW41568   3.865   6.084   8.716 -0.7857  0.2590 -0.1976
13376SOL    HW141569   3.836   6.160   8.766  0.5428  0.9136 -0.3805
13376SOL    HW241570   3.957   6.101   8.697 -0.8471 -0.7089 -1.5260
13377SOL     OW41571   0.289   4.552   1.190 -0.3869 -0.1908 -0.0238
13377SOL    HW141572   0.291   4.586   1.279  0.7360  0.7727 -0.3933
13377SOL    HW241573   0.336   4.617   1.138 -0.5557 -0.9986 -1.2340
13378SOL     OW41574   6.240   5.435   6.532  0.0444 -0.2503 -1.0686
13378SOL    HW141575   6.231   5.430   6.437  0.9088 -1.9681 -1.1051
13378SOL    HW241576   6.299   5.363   6.554  0.9878  0.9641  0.6364
13379SOL     OW41577   2.267   3.977  10.048 -0.2041 -0.1950 -0.1481
13379SOL    HW141578   2.214   3.978   9.968 -0.2194 -0.9776 -0.1536
13379SOL    HW241579   2.248   4.061  10.090 -0.6974 -0.0552 -0.6370
13380SOL     OW41580   3.067   0.568   4.435 -0.0414 -0.6640  0.0641
13380SOL    HW141581   3.119   0.505   4.384 -1.5822 -1.8064 -0.1842
13380SOL    HW241582   3.051   0.640   4.375 -0.1975 -1.1085 -0.4431
13381SOL     OW41583   7.166   0.709   4.586  0.0843 -0.5290 -0.4915
13381SOL    HW141584   7.112   0.767   4.532  1.0480  1.1334  0.2655
13381SOL    HW241585   7.109   0.635   4.605 -1.1452  0.0801 -1.6031
13382SOL     OW41586   1.300   4.558   5.391 -0.0345 -0.1413  0.0003
13382SOL    HW141587   1.390   4.544   5.361 -0.3998 -0.2406 -1.0942
13382SOL    HW241588   1.285   4.652   5.380 -0.7672 -0.4398 -1.9465
13383SOL     OW41589   3.336   3.206   2.247  0.2508  0.9668  0.1990
13383SOL    HW141590   3.384   3.211   2.330 -0.6178  0.7932  0.7192
13383SOL    HW241591   3.404   3.188   2.182  0.7624 -0.4243  1.0733
13384SOL     OW41592   7.031   4.992   9.513 -0.6079 -0.0986 -0.0619
13384SOL    HW141593   7.118   4.983   9.476  0.0230  0.4975  1.2042
13384SOL    HW241594   7.029   4.928   9.584 -1.1521 -0.0115  0.0052
13385SOL     OW41595   1.760   7.458  10.804 -0.0598 -0.0576  0.0000
13385SOL    HW141596   1.694   7.469  10.872  2.1537  3.1000  1.8566
13385SOL    HW241597   1.717   7.488  10.724 -1.0168  1.6566  1.0978
13386SOL     OW41598   2.995   6.093   1.186 -0.2966 -0.4248 -0.2592
13386SOL    HW141599   3.086   6.069   1.201 -0.2574  0.6395  1.4626
13386SOL    HW241600   2.994   6.188   1.191 -1.8233 -0.4883  1.9807
13387SOL     OW41601   6.606   5.422   3.486 -0.5531 -0.3778  0.2672
13387SOL    HW141602   6.627   5.350   3.426 -1.3851 -0.7662  0.4171
13387SOL    HW241603   6.690   5.458   3.512 -0.1528 -0.7546 -0.4737
13388SOL     OW41604   3.570   0.724  12.175 -0.0217 -0.3769  0.3862
13388SOL    HW141605   3.586   0.694  12.264  1.3615  0.7701  0.5519
13388SOL    HW241606   3.546   0.816  12.185  0.3559 -0.1814 -0.4471
13389SOL     OW41607   3.230   2.421   6.398 -0.3157 -0.2226 -0.2199
13389SOL    HW141608   3.209   2.330   6.378 -1.6919 -0.1445  0.7359
13389SOL    HW241609   3.182   2.440   6.478  3.2777  0.1116  2.0417
13390SOL     OW41610   4.410   6.243  11.070 -0.4267  0.3900 -1.1740
13390SOL    HW141611   4.334   6.298  11.090 -0.2739 -0.0103  0.6521
13390SOL    HW241612   4.373   6.165  11.029 -1.0313  0.2132 -0.3305
13391SOL     OW41613   7.267   2.941   9.292  0.3045 -0.0938  0.2118
13391SOL    HW141614   7.185   2.909   9.331 -1.4632  0.2848 -2.8554
13391SOL    HW241615   7.254   3.036   9.285  1.0456 -0.0266 -0.2762
13392SOL     OW41616   1.088   3.014   4.083  0.0722  0.9409  0.1316
13392SOL    HW141617   1.130   2.929   4.070 -3.1135 -0.5513 -1.4870
13392SOL    HW241618   1.085   3.053   3.995 -1.1278  1.3424  0.3266
13393SOL     OW41619   7.887   2.603   1.182  0.0765 -0.0306  0.7786
13393SOL    HW141620   7.834   2.594   1.103  1.7617  0.6825 -0.4936
13393SOL    HW241621   7.889   2.697   1.199  2.7647  0.2336 -0.5792
13394SOL     OW41622   0.209   2.133   4.162  0.1871 -0.3707 -0.1472
13394SOL    HW141623   0.210   2.143   4.257 -0.8924 -1.2010 -0.0297
13394SOL    HW241624   0.289   2.176   4.133 -0.7072  2.2022  0.9017
13395SOL     OW41625   4.272   2.852   4.002  0.0979 -0.3647  0.3291
13395SOL    HW141626   4.295   2.761   4.021 -0.2779 -0.8060 -1.1568
13395SOL    HW241627   4.242   2.887   4.086  2.3303 -0.9275  1.4468
13396SOL     OW41628   4.465   0.535   5.044  0.4901  0.1119 -0.3322
13396SOL    HW141629   4.489   0.543   5.137  0.4646 -1.9808 -0.0918
13396SOL    HW241630   4.542   0.496   5.003 -0.4427 -1.4810 -0.6470
13397SOL     OW41631   5.509   7.006  11.118  0.3932  0.1976 -0.0579
13397SOL    HW141632   5.480   6.953  11.043 -3.2596  1.4521  0.2716
13397SOL    HW241633   5.603   7.013  11.106  0.4566 -2.5583 -2.5801
13398SOL     OW41634   4.630   4.132   5.075 -0.1935  0.1069 -0.1363
13398SOL    HW141635   4.671   4.047   5.095  0.5503 -0.0138 -1.9287
13398SOL    HW241636   4.693   4.197   5.106  0.5446 -0.0648 -1.1931
13399SOL     OW41637   6.285   0.759   1.308 -0.4063 -0.2933 -0.3282
13399SOL    HW141638   6.212   0.738   1.249 -1.1680  1.4061 -0.0594
13399SOL    HW241639   6.290   0.854   1.307  0.1079 -0.2466  1.6985
13400SOL     OW41640   7.113   2.840  10.589 -0.0342  0.5616 -0.5128
13400SOL    HW141641   7.092   2.933  10.594  1.0194  0.8667 -1.3494
13400SOL    HW241642   7.157   2.820  10.671 -1.5771  0.4206  0.3226
13401SOL     OW41643   0.508   4.581   6.525 -0.5483  0.3552 -0.1929
13401SOL    HW141644   0.477   4.661   6.483 -0.8021  0.4055  0.0876
13401SOL    HW241645   0.603   4.592   6.529 -0.2152 -0.7311 -2.9774
13402SOL     OW41646   4.003   0.572   7.246  0.1240 -0.1938  0.5648
13402SOL    HW141647   3.990   0.485   7.283 -0.3258 -0.4471 -0.1674
13402SOL    HW241648   3.920   0.617   7.260 -0.1028 -0.3403 -0.2387
13403SOL     OW41649   4.833   5.290   5.905  0.9449 -0.9150  0.2221
13403SOL    HW141650   4.898   5.342   5.953  1.1121 -2.2012  1.4574
13403SOL    HW241651   4.766   5.269   5.970 -0.6575  0.2157 -0.9860
13404SOL     OW41652   4.878   6.754   7.752 -0.0718 -0.6779 -0.0796
13404SOL    HW141653   4.811   6.770   7.818  0.8407  0.5317  0.6103
13404SOL    HW241654   4.836   6.777   7.669  0.3152  3.2244  0.5919
13405SOL     OW41655   1.942   3.411   7.018  0.0207  0.4643 -0.4257
13405SOL    HW141656   2.030   3.379   7.038 -0.3501  0.1002  0.6822
13405SOL    HW241657   1.891   3.332   7.000 -0.5316  0.5238  0.8241
13406SOL     OW41658   5.576   0.390   7.908  0.3216  0.0964  0.0815
13406SOL    HW141659   5.628   0.311   7.898 -0.6034 -0.6596  1.0200
13406SOL    HW241660   5.508   0.382   7.841 -0.0787 -0.1601  0.5172
13407SOL     OW41661   1.332   2.881   1.590  0.2086  0.1311  0.1395
13407SOL    HW141662   1.406   2.822   1.574  1.0038  0.8243  1.0822
13407SOL    HW241663   1.256   2.824   1.596  0.8919 -0.7636  0.5830
13408SOL     OW41664   1.320   7.838   8.553 -0.3087 -0.4276 -0.2658
13408SOL    HW141665   1.350   7.916   8.506  0.6974 -0.2131  0.6891
13408SOL    HW241666   1.396   7.780   8.556 -0.6901 -0.9261  0.1051
13409SOL     OW41667   4.345   3.027   3.363 -0.0375 -0.0081 -0.2364
13409SOL    HW141668   4.339   3.122   3.370  1.2610  0.3599 -2.8454
13409SOL    HW241669   4.378   2.998   3.449 -1.9206  1.6541  1.1309
13410SOL     OW41670   2.551   2.511   4.987 -0.0176  0.4048 -0.5594
13410SOL    HW141671   2.506   2.595   4.979  0.0577  0.6144  0.8987
13410SOL    HW241672   2.628   2.530   5.041 -0.6719 -0.8229  0.8586
13411SOL     OW41673   3.456   2.926  10.141  0.0067  0.6037 -0.0951
13411SOL    HW141674   3.485   3.015  10.125 -0.6681  0.5717 -1.7044
13411SOL    HW241675   3.361   2.929  10.132 -0.0117 -0.2957 -0.3476
13412SOL     OW41676   3.095   1.254   4.850  0.1839 -0.7556  0.0995
13412SOL    HW141677   3.019   1.276   4.903  0.2726  0.0319 -0.0901
13412SOL    HW241678   3.060   1.203   4.777 -0.4116  0.9380 -0.8590
13413SOL     OW41679   7.050   0.007   5.561 -0.0305  0.2907 -0.0219
13413SOL    HW141680   7.143   0.008   5.587  0.4812  1.4455 -1.7714
13413SOL    HW241681   7.008   0.067   5.623  0.7399  1.1538 -0.2979
13414SOL     OW41682   5.615   6.659  11.088 -0.1835  0.1781 -0.2911
13414SOL    HW141683   5.575   6.656  11.001  1.7606 -0.7446 -1.2165
13414SOL    HW241684   5.671   6.582  11.092  0.7407  0.8746  1.2881
13415SOL     OW41685   5.264   3.285   9.682 -0.2587 -0.7137  0.2710
13415SOL    HW141686   5.286   3.349   9.749 -0.7027 -0.7350  0.4384
13415SOL    HW241687   5.200   3.328   9.626 -1.1462 -1.2686  0.8338
13416SOL     OW41688   7.623   0.626   8.940  0.2621  0.4485  0.3237
13416SOL    HW141689   7.555   0.657   8.880 -0.5646  0.0065  1.0129
13416SOL    HW241690   7.617   0.530   8.935  2.2390  0.3415 -1.1747
13417SOL     OW41691   1.788   1.320   9.538  0.2950  0.2244 -0.0579
13417SOL    HW141692   1.791   1.326   9.442  0.9561 -0.6052 -0.0931
13417SOL    HW241693   1.694   1.318   9.558  0.1465 -0.3424 -0.7454
13418SOL     OW41694   7.865   6.220  12.293 -0.3307 -0.4200  0.1792
13418SOL    HW141695   7.859   6.127  12.271  0.8109 -0.5605  0.4150
13418SOL    HW241696   7.907   6.222  12.378 -1.5436  0.2785  0.7893
13419SOL     OW41697   3.690   6.172   7.834  0.0157  0.4397 -0.1963
13419SOL    HW141698   3.610   6.173   7.782 -0.9021 -1.1082  1.0873
13419SOL    HW241699   3.681   6.096   7.891  2.7794 -0.2834 -0.5563
13420SOL     OW41700   4.123   6.276  11.074  0.2967 -0.7453  0.0937
13420SOL    HW141701   4.154   6.194  11.035  1.4625 -0.3862  0.2514
13420SOL    HW241702   4.092   6.327  10.999  0.7326 -0.8307 -0.1470
13421SOL     OW41703   7.489   1.059   7.484  0.0869 -0.2561  0.5161
13421SOL    HW141704   7.511   1.023   7.570 -0.2925 -0.5050  0.5152
13421SOL    HW241705   7.571   1.058   7.435  0.2425 -0.3912  0.7796
13422SOL     OW41706   7.622   5.273   1.399  0.4326 -1.1507 -0.4183
13422SOL    HW141707   7.576   5.348   1.437  1.6565 -0.4067 -0.3565
13422SOL    HW241708   7.568   5.197   1.423 -0.5945 -0.3477 -0.1071
13423SOL     OW41709   4.092   1.100   3.188  0.0413 -0.0227 -0.0845
13423SOL    HW141710   4.127   1.013   3.168  0.2797  0.5463 -2.4554
13423SOL    HW241711   3.997   1.090   3.183 -0.3263 -1.1702  4.6326
13424SOL     OW41712   5.651   6.955   6.976 -0.8231 -0.0966  0.2840
13424SOL    HW141713   5.659   6.960   7.071 -1.1883 -0.7911  0.3626
13424SOL    HW241714   5.741   6.944   6.945 -0.5738  1.3456  0.4463
13425SOL     OW41715   4.970   5.669   3.136 -0.2797 -0.3396  0.3335
13425SOL    HW141716   5.027   5.609   3.184  0.6290  0.3981  0.2108
13425SOL    HW241717   5.030   5.720   3.082 -0.8847  1.4136  1.2263
13426SOL     OW41718   4.227   0.065   4.941 -0.3066 -0.0220 -0.2690
13426SOL    HW141719   4.217   0.116   4.861  1.0058  1.2233  0.3074
13426SOL    HW241720   4.196   0.123   5.010 -0.3899 -0.6583  0.2368
13427SOL     OW41721   6.953   7.587   1.791 -0.0316  0.0363  0.1835
13427SOL    HW141722   6.991   7.635   1.865 -0.0117 -0.0586  0.2338
13427SOL    HW241723   6.990   7.500   1.796  0.5564  0.2433 -0.3791
13428SOL     OW41724   5.309   2.779   0.058 -0.4840 -0.3680 -0.0221
13428SOL    HW141725   5.385   2.737   0.019  0.3467  0.3912  0.7585
13428SOL    HW241726   5.326   2.873   0.052 -0.8838 -0.2067  1.0547
13429SOL     OW41727   4.852   6.378   9.563  0.0038 -0.0062  0.0190
13429SOL    HW141728   4.868   6.459   9.515 -0.0281  0.6404  1.0661
13429SOL    HW241729   4.798   6.404   9.638  1.3463 -0.7023  1.2761
13430SOL     OW41730   5.148   5.920   1.017  0.1443  0.1921 -1.1288
13430SOL    HW141731   5.131   5.850   0.954 -1.1598  0.5133 -1.1463
13430SOL    HW241732   5.077   5.913   1.081  1.6728 -0.4420  0.6286
13431SOL     OW41733   5.046   2.360   4.193  0.3185  0.0080 -0.2777
13431SOL    HW141734   4.976   2.400   4.142 -0.9347 -1.9728 -0.2255
13431SOL    HW241735   5.040   2.401   4.280 -0.4093  0.2467 -0.4378
13432SOL     OW41736   6.659   5.189   3.346  0.1817  0.3371 -0.4705
13432SOL    HW141737   6.666   5.183   3.251  0.9384 -0.8643 -0.3543
13432SOL    HW241738   6.675   5.100   3.378  0.9170  0.9050  0.8401
13433SOL     OW41739   0.805   4.666   1.397 -0.5735 -0.2016 -0.4636
13433SOL    HW141740   0.843   4.698   1.316 -2.5182 -1.8857 -2.1757
13433SOL    HW241741   0.869   4.602   1.430  1.5972  2.5515  1.0341
13434SOL     OW41742   0.784   3.545   5.065 -0.0824  0.3798 -0.8876
13434SOL    HW141743   0.806   3.529   4.973 -0.1663  2.3456 -1.3075
13434SOL    HW241744   0.855   3.602   5.096 -0.9172  1.0716 -0.2178
13435SOL     OW41745   4.698   3.493  12.073  0.6490 -0.0384  0.0392
13435SOL    HW141746   4.671   3.520  12.160  0.8460  0.9524 -0.1931
13435SOL    HW241747   4.781   3.538  12.059 -0.5721  1.9014 -1.6254
13436SOL     OW41748   3.053   6.461   8.938 -0.3470  0.0595  0.2861
13436SOL    HW141749   3.126   6.405   8.963 -0.8039  0.3390  2.4530
13436SOL    HW241750   3.085   6.508   8.860  1.4802 -0.3736  0.7242
13437SOL     OW41751   2.718   5.858   2.694 -0.4369 -0.5115  0.0452
13437SOL    HW141752   2.699   5.821   2.780 -1.6174  0.6904  0.3489
13437SOL    HW241753   2.652   5.820   2.636  0.8539 -1.9433 -0.5443
13438SOL     OW41754   1.323   3.250   2.161 -0.0832  0.1664 -0.1751
13438SOL    HW141755   1.266   3.280   2.233 -1.0626  0.8998 -1.2224
13438SOL    HW241756   1.309   3.155   2.158  0.0767  0.1034  0.6801
13439SOL     OW41757   4.781   6.058   7.179 -0.4299 -0.3894  0.3731
13439SOL    HW141758   4.806   6.032   7.268  0.0725  1.3766  0.7842
13439SOL    HW241759   4.742   5.979   7.142 -1.3828 -0.9738  2.4309
13440SOL     OW41760   0.576   3.202   1.273  0.3972  0.4569 -0.2835
13440SOL    HW141761   0.638   3.155   1.217 -1.5472 -0.6254 -1.6303
13440SOL    HW241762   0.581   3.293   1.243  2.2321  0.6665  0.5223
13441SOL     OW41763   1.448   6.361   7.991 -0.3036 -0.3189  0.3783
13441SOL    HW141764   1.402   6.378   7.909 -0.6785 -1.8791  0.2400
13441SOL    HW241765   1.381   6.369   8.059 -0.0916  0.5181  0.4950
13442SOL     OW41766   3.357   2.028  11.544 -0.4008 -0.3362  0.3502
13442SOL    HW141767   3.413   2.071  11.609  0.0789 -1.3833  0.6552
13442SOL    HW241768   3.349   1.938  11.575  1.7264 -1.5397 -2.1914
13443SOL     OW41769   5.036   4.665   3.384 -0.0213 -0.4116  0.0029
13443SOL    HW141770   4.943   4.642   3.386  0.2867 -1.8793 -1.2340
13443SOL    HW241771   5.054   4.689   3.293  0.6685  0.5716  0.3776
13444SOL     OW41772   6.201   2.642  10.929 -0.4322 -0.0026 -0.3925
13444SOL    HW141773   6.211   2.554  10.893 -0.5645 -0.1039 -0.1858
13444SOL    HW241774   6.109   2.664  10.915 -0.5908 -0.2201  0.2767
13445SOL     OW41775   7.821   1.589   0.809 -0.0008  0.3014 -0.4129
13445SOL    HW141776   7.741   1.542   0.831  0.8449  0.0709  2.7650
13445SOL    HW241777   7.847   1.555   0.723 -2.5459 -0.5796 -0.9011
13446SOL     OW41778   2.144   4.618   9.260 -0.2819  0.3752  0.9137
13446SOL    HW141779   2.111   4.553   9.322  0.6522 -2.4423 -1.3020
13446SOL    HW241780   2.232   4.639   9.292  0.3533 -1.3616  0.3883
13447SOL     OW41781   4.991   5.054   8.805  0.3931  0.3928 -0.5251
13447SOL    HW141782   5.041   4.979   8.838 -0.4468 -0.0268 -0.1722
13447SOL    HW241783   4.933   5.016   8.739  1.2990  1.0528 -1.7396
13448SOL     OW41784   0.450   0.608   5.648  0.5906  0.2730 -0.3632
13448SOL    HW141785   0.426   0.563   5.568 -1.7926  0.5832  0.1120
13448SOL    HW241786   0.443   0.542   5.717  0.7459  0.4711 -0.1511
13449SOL     OW41787   7.589   3.869   5.429 -0.0990 -0.0312  0.0142
13449SOL    HW141788   7.620   3.833   5.346 -0.4604  1.5086 -0.8345
13449SOL    HW241789   7.648   3.942   5.447 -1.6001  1.3121 -0.2861
13450SOL     OW41790   0.452   3.716  11.752 -0.4109  0.0816 -0.3293
13450SOL    HW141791   0.510   3.644  11.775  0.3700  0.3209 -1.4876
13450SOL    HW241792   0.459   3.777  11.825  0.5087 -0.0734 -0.2813
13451SOL     OW41793   0.829   5.657  11.146 -0.0167  0.3874  0.0494
13451SOL    HW141794   0.845   5.655  11.241 -0.5778  0.9792  0.1633
13451SOL    HW241795   0.867   5.739  11.117  0.9603 -0.2138 -0.3988
13452SOL     OW41796   3.092   4.878   7.884  0.2383 -0.0147  0.5430
13452SOL    HW141797   3.095   4.793   7.927 -0.2125 -0.0037  0.6059
13452SOL    HW241798   3.084   4.941   7.955 -1.7928 -0.0708  0.4366
13453SOL     OW41799   5.237   7.077  10.882 -0.3842  0.0361  0.4945
13453SOL    HW141800   5.238   7.139  10.809  0.1336  2.3395  2.3413
13453SOL    HW241801   5.275   6.996  10.845  0.1484  1.1954 -1.6747
13454SOL     OW41802   2.991   6.170   9.139 -0.1308  0.2784  0.1633
13454SOL    HW141803   2.921   6.195   9.200  0.2397 -3.0289  2.2049
13454SOL    HW241804   3.071   6.206   9.178  0.0828 -1.6844  1.7136
13455SOL     OW41805   0.038   6.491   0.804  0.0938 -0.5384  0.3891
13455SOL    HW141806   0.103   6.429   0.839 -1.4058 -1.9363  0.8052
13455SOL    HW241807  -0.045   6.445   0.810 -1.1026  1.5251  0.6652
13456SOL     OW41808   0.160   0.223   3.668 -0.1363  0.1563  0.2995
13456SOL    HW141809   0.150   0.139   3.622 -0.8823  0.6065 -0.3958
13456SOL    HW241810   0.137   0.203   3.758  0.2218 -0.5022  0.2567
13457SOL     OW41811   5.911   7.405   3.349 -0.1197 -0.1144 -0.3044
13457SOL    HW141812   5.993   7.376   3.389 -0.1668 -0.0302 -0.1479
13457SOL    HW241813   5.895   7.341   3.279  0.3215  0.1325 -0.6395
13458SOL     OW41814   6.330   6.987  11.333  0.8991 -0.3361 -0.0190
13458SOL    HW141815   6.257   7.048  11.327 -0.5006 -1.9410 -0.0625
13458SOL    HW241816   6.298   6.916  11.389  1.5535 -2.2056 -1.8574
13459SOL     OW41817   5.933   4.599   5.014 -0.2351  0.1444 -0.3590
13459SOL    HW141818   6.001   4.598   5.081  0.3741 -1.1697 -0.9599
13459SOL    HW241819   5.851   4.600   5.064  0.2113  0.0008  0.4033
13460SOL     OW41820   4.064   1.630   5.599  0.4867  0.8618  0.6668
13460SOL    HW141821   4.139   1.592   5.646 -1.4648 -2.5272  1.3619
13460SOL    HW241822   4.099   1.651   5.512  2.1602 -1.2284  0.7429
13461SOL     OW41823   2.669   4.795   7.471 -0.1151 -0.1108 -0.0960
13461SOL    HW141824   2.685   4.746   7.552 -0.8547 -0.0505  0.0870
13461SOL    HW241825   2.757   4.818   7.440  0.2069 -0.7683  0.2935
13462SOL     OW41826   5.069   1.212   7.508 -0.5207  0.2787  0.2172
13462SOL    HW141827   5.012   1.287   7.488 -0.0918  0.4556 -0.3696
13462SOL    HW241828   5.157   1.249   7.513 -0.5626  0.1938  2.2646
13463SOL     OW41829   2.514   3.804   2.350 -0.3563  0.0547  0.2973
13463SOL    HW141830   2.567   3.748   2.293  0.3632  0.5918  0.4142
13463SOL    HW241831   2.450   3.745   2.389 -0.9231 -0.3044 -1.1260
13464SOL     OW41832   5.223   3.145   9.443 -0.4731 -0.7097 -0.0870
13464SOL    HW141833   5.272   3.068   9.414  0.8638  0.5620 -1.3449
13464SOL    HW241834   5.234   3.145   9.538 -1.2353 -2.5136  0.0585
13465SOL     OW41835   2.673   2.411   2.976  0.6880  0.5088  0.4732
13465SOL    HW141836   2.715   2.431   2.892  1.1806 -0.2173  0.5304
13465SOL    HW241837   2.743   2.421   3.040  0.0761  2.0156  0.9351
13466SOL     OW41838   0.427   6.810   6.276  0.5308  0.3750 -0.1225
13466SOL    HW141839   0.496   6.876   6.273 -1.2956  2.3758 -0.5849
13466SOL    HW241840   0.455   6.749   6.344  2.1871  1.7766  0.5173
13467SOL     OW41841   1.714   5.111  11.857  0.3334 -0.2339  0.3687
13467SOL    HW141842   1.707   5.027  11.902  0.3058 -1.0682 -1.1038
13467SOL    HW241843   1.640   5.162  11.889 -0.3124 -1.2010  0.4684
13468SOL     OW41844   7.603   0.798   0.711  0.0427 -0.1717  0.1259
13468SOL    HW141845   7.547   0.865   0.751  1.6997  0.4145  1.5919
13468SOL    HW241846   7.684   0.801   0.761  0.7726 -2.1958 -0.8117
13469SOL     OW41847   5.599   6.320   2.856  0.2697  1.1721 -0.0632
13469SOL    HW141848   5.667   6.283   2.911 -0.5226  1.7339  1.3301
13469SOL    HW241849   5.646   6.353   2.779  1.3176 -0.0931  0.0016
13470SOL     OW41850   2.931   2.589   6.895 -0.2208  0.3498 -0.3408
13470SOL    HW141851   2.844   2.555   6.918  0.0083 -0.2845 -0.3968
13470SOL    HW241852   2.975   2.516   6.852  0.6297  0.4141  0.3924
13471SOL     OW41853   0.252   4.349   4.784  0.3355  0.2724 -0.0130
13471SOL    HW141854   0.266   4.385   4.872 -2.2247  1.1666  0.1350
13471SOL    HW241855   0.156   4.342   4.777  0.5549 -3.2978 -1.3747
13472SOL     OW41856   1.490   0.672   4.272  0.1486 -0.1162 -0.1856
13472SOL    HW141857   1.520   0.602   4.214 -0.6504 -0.1511 -0.5713
13472SOL    HW241858   1.422   0.631   4.325 -1.2734  0.6870 -1.3309
13473SOL     OW41859   3.954   2.045   9.644  0.0490 -0.3757 -0.3788
13473SOL    HW141860   4.042   2.083   9.642 -0.4349  0.7820 -0.3116
13473SOL    HW241861   3.949   2.001   9.729  0.9819 -1.5132 -0.8910
13474SOL     OW41862   5.562   3.593   5.910 -0.0328 -0.1459  0.0038
13474SOL    HW141863   5.520   3.662   5.962 -0.4086 -1.5463  1.6549
13474SOL    HW241864   5.489   3.548   5.867 -0.0064 -0.9288  0.7636
13475SOL     OW41865   0.321   0.693   1.893 -0.0849 -0.3356 -0.1670
13475SOL    HW141866   0.343   0.770   1.946  2.7931 -2.0273  1.3828
13475SOL    HW241867   0.290   0.629   1.957 -0.1804 -1.2145 -1.0769
13476SOL     OW41868   6.187   2.581   0.123 -0.0657  0.3456  0.1064
13476SOL    HW141869   6.139   2.553   0.201 -0.2445  0.2106 -0.0525
13476SOL    HW241870   6.279   2.580   0.149 -0.1159  0.1619  0.2698
13477SOL     OW41871   6.696   0.395   4.009  0.0330 -0.8641 -0.0252
13477SOL    HW141872   6.616   0.367   3.963  0.0401 -0.8712 -0.0331
13477SOL    HW241873   6.757   0.419   3.939 -0.2052 -0.1889 -0.0130
13478SOL     OW41874   1.138   6.318   5.105 -0.2326  0.1259  0.0077
13478SOL    HW141875   1.186   6.399   5.119 -0.8725  0.2841  1.4971
13478SOL    HW241876   1.046   6.342   5.112 -0.4689 -0.5703 -0.5124
13479SOL     OW41877   0.049   6.026  11.448  0.0935 -0.1990  0.3858
13479SOL    HW141878  -0.027   5.967  11.443  0.7312 -1.0697  0.7969
13479SOL    HW241879   0.016   6.102  11.496 -0.2837 -0.9770  1.4209
13480SOL     OW41880   1.556   6.540   9.447  0.6335 -0.1401 -0.0591
13480SOL    HW141881   1.488   6.543   9.513  1.4616  0.5817  0.7875
13480SOL    HW241882   1.543   6.456   9.403 -0.9702  0.1135 -0.1231
13481SOL     OW41883   0.262   5.625   9.788  0.2666 -0.0164  0.8413
13481SOL    HW141884   0.213   5.639   9.706  0.8684 -0.7711  0.3351
13481SOL    HW241885   0.272   5.530   9.794 -0.3222 -0.0167  2.1341
13482SOL     OW41886   1.440   4.823  11.047  0.0905  0.1145 -0.1855
13482SOL    HW141887   1.524   4.862  11.071 -1.7457  3.2733  1.9349
13482SOL    HW241888   1.429   4.750  11.107  1.8844 -1.3665 -1.5338
13483SOL     OW41889   5.340   5.933   1.833 -0.5078 -0.0847  0.5345
13483SOL    HW141890   5.323   6.003   1.896 -2.5024  0.2770 -0.3294
13483SOL    HW241891   5.311   5.968   1.749  3.6769  0.1021 -1.0697
13484SOL     OW41892   7.473   5.828  12.336 -0.2107 -0.0879  0.4416
13484SOL    HW141893   7.436   5.882  12.406  1.1821  1.9465 -0.3258
13484SOL    HW241894   7.545   5.781  12.379  0.6783  1.1972  0.4255
13485SOL     OW41895   4.748   1.148   1.300 -0.4245  0.5416 -0.7189
13485SOL    HW141896   4.676   1.120   1.243 -0.1302  0.8948 -1.2715
13485SOL    HW241897   4.803   1.202   1.244 -0.3692  1.2702  0.0271
13486SOL     OW41898   6.217   7.573   6.205 -0.3882  0.2649  0.1728
13486SOL    HW141899   6.218   7.483   6.174  0.6633  0.4751 -0.4416
13486SOL    HW241900   6.165   7.570   6.285  0.0606 -0.9767  0.4343
13487SOL     OW41901   3.395   7.150   4.590 -0.0619  0.6620 -0.4313
13487SOL    HW141902   3.415   7.145   4.684 -0.9827 -1.4178 -0.3053
13487SOL    HW241903   3.481   7.151   4.548  0.3595 -0.5207  0.3629
13488SOL     OW41904   2.876   7.211   8.802  0.4688 -0.3164  0.6036
13488SOL    HW141905   2.782   7.220   8.818  0.1258 -0.7106 -0.9706
13488SOL    HW241906   2.914   7.292   8.835 -0.7644  0.9693 -0.9753
13489SOL     OW41907   1.441   5.051  10.324  0.2037 -0.2082 -0.7273
13489SOL    HW141908   1.472   4.983  10.384  0.2175  0.0238 -0.4720
13489SOL    HW241909   1.446   5.132  10.374  0.1999 -0.0140 -1.0358
13490SOL     OW41910   5.200   1.234   9.632  0.3461  0.0265  0.5693
13490SOL    HW141911   5.263   1.176   9.675  0.2984 -0.0094  0.5897
13490SOL    HW241912   5.180   1.191   9.549  2.8261  1.5650 -0.9667
13491SOL     OW41913   1.305   5.156   4.029 -0.0447  0.4303  0.1617
13491SOL    HW141914   1.216   5.169   4.063 -0.3545  0.1621 -0.5185
13491SOL    HW241915   1.319   5.061   4.035  0.0366  0.4238 -0.0979
13492SOL     OW41916   2.362   3.985   2.016 -0.1194  0.3576 -0.2371
13492SOL    HW141917   2.367   4.051   1.948 -0.4498 -0.1804 -0.7895
13492SOL    HW241918   2.387   3.903   1.973 -0.5326 -0.0226  0.2310
13493SOL     OW41919   5.771   7.310   9.471 -0.1595 -0.3240 -0.0807
13493SOL    HW141920   5.765   7.389   9.525 -0.6484  0.9644 -1.9027
13493SOL    HW241921   5.708   7.325   9.400  1.4607 -1.2586 -1.8068
13494SOL     OW41922   5.759   3.927   5.975 -0.0081 -0.1807  0.3156
13494SOL    HW141923   5.697   3.904   6.044 -0.7422  0.3846 -0.1486
13494SOL    HW241924   5.721   4.004   5.933  0.1549 -0.8285 -1.0841
13495SOL     OW41925   1.523   3.615   5.295  0.1997 -0.7432 -0.2915
13495SOL    HW141926   1.604   3.621   5.345 -0.6007 -0.2523  0.9863
13495SOL    HW241927   1.463   3.566   5.351 -1.1592  0.9763 -0.1465
13496SOL     OW41928   5.678   4.624   8.273 -0.2837 -0.3535 -0.1368
13496SOL    HW141929   5.628   4.613   8.192 -0.9133 -1.1796  0.3304
13496SOL    HW241930   5.695   4.534   8.302 -0.4562 -0.0804  0.8621
13497SOL     OW41931   4.687   6.069  11.528 -0.6679  0.3441 -0.0292
13497SOL    HW141932   4.664   6.069  11.621  0.3798 -1.0340  0.2683
13497SOL    HW241933   4.717   6.158  11.510 -0.0786  0.4048  1.1653
13498SOL     OW41934   4.790   6.377   9.142 -0.0900 -0.3480 -0.6107
13498SOL    HW141935   4.789   6.399   9.235 -0.3466 -2.6399 -0.0009
13498SOL    HW241936   4.743   6.450   9.100  1.6933  1.7067  0.7428
13499SOL     OW41937   7.458   3.959   0.335  0.5041  0.3061 -0.1923
13499SOL    HW141938   7.387   4.010   0.297  0.4069  1.8324  1.8395
13499SOL    HW241939   7.537   4.011   0.318  0.6275  0.3666  0.5191
13500SOL     OW41940   7.158   2.504   0.594  0.6862  0.0253 -0.4655
13500SOL    HW141941   7.163   2.584   0.648  0.6294  0.6934 -1.4276
13500SOL    HW241942   7.249   2.488   0.568  1.2658 -2.1549  2.3917
13501SOL     OW41943   5.043   2.975   5.258  0.5105  0.2200 -0.5500
13501SOL    HW141944   4.965   3.019   5.292  1.2868  0.9040  0.4203
13501SOL    HW241945   5.016   2.940   5.173 -1.5203 -1.5079  0.6863
13502SOL     OW41946   5.571   1.720   2.009 -0.3210  0.0375  0.1744
13502SOL    HW141947   5.546   1.651   2.071 -1.4273  0.0121 -0.2765
13502SOL    HW241948   5.552   1.802   2.056  2.3055  0.1282  1.2580
13503SOL     OW41949   1.302   2.437   5.849  0.0782  0.1747 -0.1415
13503SOL    HW141950   1.327   2.484   5.770 -0.9720  1.2737  0.1422
13503SOL    HW241951   1.221   2.480   5.878  0.1936 -0.4909  1.2751
13504SOL     OW41952   7.280   3.029   0.061  0.0090 -0.2052  0.1098
13504SOL    HW141953   7.247   3.105   0.013  1.3953 -0.2301 -0.9530
13504SOL    HW241954   7.300   3.063   0.148 -2.0787 -0.0383  0.5567
13505SOL     OW41955   3.392   1.255   8.034 -0.0638  0.1428  0.2812
13505SOL    HW141956   3.334   1.181   8.019 -1.3681  1.1379  0.1782
13505SOL    HW241957   3.409   1.254   8.128 -2.5447  1.3851  0.8362
13506SOL     OW41958   6.704   1.203  10.238  0.2082  0.6073 -0.4990
13506SOL    HW141959   6.793   1.203  10.202  0.4679 -1.1929  0.0785
13506SOL    HW241960   6.716   1.187  10.332 -0.7429  0.2734 -0.4263
13507SOL     OW41961   0.390   4.517   4.205 -0.5246  0.5452 -0.2911
13507SOL    HW141962   0.485   4.509   4.193 -0.5112 -1.9840  0.7972
13507SOL    HW241963   0.375   4.611   4.213  1.9948  0.9872  0.2277
13508SOL     OW41964   2.019   0.148   5.401  0.3963 -0.2697 -0.6359
13508SOL    HW141965   2.088   0.176   5.461 -0.3998  0.1331  0.1125
13508SOL    HW241966   2.009   0.054   5.417 -0.5470  0.0310  0.6579
13509SOL     OW41967   4.519   2.663   6.298  0.2848  0.3267  0.0192
13509SOL    HW141968   4.507   2.609   6.376  1.1947  0.7277  0.4499
13509SOL    HW241969   4.593   2.720   6.319 -0.5226  1.5930 -0.5188
13510SOL     OW41970   1.132   1.577   6.212 -0.4945  0.0165 -0.0177
13510SOL    HW141971   1.040   1.558   6.195 -0.4881  0.4790 -0.6267
13510SOL    HW241972   1.155   1.524   6.288 -1.2567 -0.1201  0.1189
13511SOL     OW41973   6.257   1.683  12.120 -0.6576  0.0029  0.6285
13511SOL    HW141974   6.246   1.753  12.185  2.3688  0.3667  0.9083
13511SOL    HW241975   6.287   1.608  12.172  2.8393  0.5923 -0.2671
13512SOL     OW41976   6.530   6.906  11.695 -0.0654 -0.1777 -0.2133
13512SOL    HW141977   6.503   6.969  11.763  0.6441  0.3180 -0.3744
13512SOL    HW241978   6.531   6.958  11.614  3.1653  0.3891  0.0454
13513SOL     OW41979   3.120   1.491  12.118  0.3755  0.3874  0.2560
13513SOL    HW141980   3.188   1.446  12.068  0.7763  0.2279  0.9330
13513SOL    HW241981   3.048   1.504  12.055  0.9665  0.4237 -0.4230
13514SOL     OW41982   5.003   3.376   7.000  0.3674  0.5174  0.9087
13514SOL    HW141983   5.052   3.372   7.082  1.8707  0.0257  0.0452
13514SOL    HW241984   4.995   3.469   6.980  0.9877  0.6081  1.0668
13515SOL     OW41985   6.676   5.070   9.194 -0.2508 -0.1549 -0.2248
13515SOL    HW141986   6.712   5.121   9.267 -0.9915  0.1655 -0.0684
13515SOL    HW241987   6.684   5.128   9.118  1.6255 -0.9342 -0.6746
13516SOL     OW41988   3.773   0.568   2.465  0.3591  0.2864  0.3098
13516SOL    HW141989   3.808   0.630   2.401  0.4777  0.3023  0.3900
13516SOL    HW241990   3.685   0.549   2.434  1.0186 -1.0901 -0.8837
13517SOL     OW41991   4.172   3.425   1.485  0.1007 -0.2737 -0.1996
13517SOL    HW141992   4.184   3.422   1.390 -0.1092 -0.9647 -0.2088
13517SOL    HW241993   4.081   3.400   1.499  0.5717 -1.9011  0.2638
13518SOL     OW41994   4.938   4.807   2.833  0.3930 -0.3588  0.0080
13518SOL    HW141995   5.011   4.761   2.792  0.9975 -0.5212  1.2477
13518SOL    HW241996   4.977   4.855   2.905 -0.6346  0.0634  0.2976
13519SOL     OW41997   6.936   0.694   4.831 -0.2192  0.4690  0.7789
13519SOL    HW141998   6.882   0.652   4.764  0.6225 -0.3067  0.5777
13519SOL    HW241999   6.875   0.708   4.904 -0.7374 -0.2601  0.5017
13520SOL     OW42000   0.610   2.327   8.929 -0.0196  0.5045  0.2710
13520SOL    HW142001   0.525   2.285   8.943  0.5080 -1.1081 -0.9864
13520SOL    HW242002   0.672   2.270   8.975  0.5973  0.5471 -0.4941
13521SOL     OW42003   4.928   4.384   6.100 -0.5340 -0.5950 -0.3794
13521SOL    HW142004   4.853   4.435   6.071 -0.2432  0.6790  1.0009
13521SOL    HW242005   4.895   4.294   6.106 -1.7496 -0.1715 -0.4549
13522SOL     OW42006   3.356   1.298  11.015  0.1946  0.2380  0.2210
13522SOL    HW142007   3.443   1.338  11.009  0.7467 -0.9950 -0.3409
13522SOL    HW242008   3.296   1.365  10.980  1.1039  0.5050 -0.8867
13523SOL     OW42009   5.048   0.162   8.139 -0.2103  0.1077 -0.3931
13523SOL    HW142010   5.057   0.070   8.114 -0.3043 -0.2632  0.8756
13523SOL    HW242011   4.998   0.201   8.068 -0.9965 -1.0427 -0.5040
13524SOL     OW42012   0.157   6.725   5.326  0.2375 -0.4670  0.3778
13524SOL    HW142013   0.108   6.649   5.357  0.0315 -0.2538  0.5767
13524SOL    HW242014   0.241   6.720   5.372  0.2403 -0.5983  0.3586
13525SOL     OW42015   5.287   0.564   6.814  0.0734 -0.4139 -0.1189
13525SOL    HW142016   5.224   0.629   6.845 -0.7334 -1.4484  0.4607
13525SOL    HW242017   5.317   0.520   6.894 -1.2843 -2.4428 -0.6661
13526SOL     OW42018   3.090   2.632   9.117 -0.2704  0.3095  0.3807
13526SOL    HW142019   3.181   2.659   9.108 -0.9435  2.8862  0.4951
13526SOL    HW242020   3.046   2.671   9.041 -1.4226 -0.1582  0.7835
13527SOL     OW42021   6.055   1.572   2.390 -0.8219 -0.0467 -1.0141
13527SOL    HW142022   6.118   1.644   2.391  1.0212 -1.4861  1.9479
13527SOL    HW242023   6.051   1.545   2.298  0.9854  1.6930 -1.6809
13528SOL     OW42024   1.535   6.541   3.119  0.4443  0.2168 -0.1403
13528SOL    HW142025   1.491   6.463   3.154 -0.1819  0.5300 -0.2142
13528SOL    HW242026   1.529   6.605   3.190 -0.5444  0.7478 -0.6814
13529SOL     OW42027   7.359   5.754   0.419  0.1811  0.4680  0.2070
13529SOL    HW142028   7.354   5.780   0.511  1.3927  0.7255  0.2267
13529SOL    HW242029   7.274   5.778   0.382  0.6792  3.1159  0.5803
13530SOL     OW42030   5.744   7.924   1.194 -0.6535  0.0265 -0.0834
13530SOL    HW142031   5.727   7.835   1.164 -2.1196 -0.5222  2.1271
13530SOL    HW242032   5.683   7.979   1.146 -2.5713 -0.7504  1.3583
13531SOL     OW42033   3.243   0.726   8.480 -0.0980 -0.3617 -0.1849
13531SOL    HW142034   3.289   0.700   8.560  0.8990 -1.2908 -1.0360
13531SOL    HW242035   3.165   0.670   8.478  1.3726 -2.4738 -1.3374
13532SOL     OW42036   5.952   2.534   6.438  0.2615 -0.0321  0.2333
13532SOL    HW142037   5.867   2.577   6.450 -0.0150 -0.9534  1.8716
13532SOL    HW242038   5.931   2.440   6.432  1.1108 -0.2209 -0.0010
13533SOL     OW42039   0.479   5.798  11.430 -0.1488 -0.2410 -0.0037
13533SOL    HW142040   0.441   5.753  11.505  0.3477 -0.7874 -0.0805
13533SOL    HW242041   0.443   5.887  11.436 -1.5432 -0.7594 -0.1344
13534SOL     OW42042   5.959   5.906  11.552  0.1153 -0.2238 -0.2389
13534SOL    HW142043   5.942   5.927  11.643  0.8269 -0.2086 -0.1060
13534SOL    HW242044   6.041   5.857  11.553 -0.3828 -1.0904 -0.7711
13535SOL     OW42045   7.593   1.005   8.986  0.1268  0.1731  0.1345
13535SOL    HW142046   7.532   1.040   8.921  0.3129  1.8267  0.7879
13535SOL    HW242047   7.637   1.083   9.022  0.4880 -0.7310  1.7606
13536SOL     OW42048   5.655   7.657   9.063  0.3009  0.0450 -0.1891
13536SOL    HW142049   5.593   7.704   9.119 -0.9172  0.1830 -1.5763
13536SOL    HW242050   5.623   7.567   9.062  0.6029 -0.0635 -0.2607
13537SOL     OW42051   6.135   7.829  10.551  0.4465 -0.1581  0.0823
13537SOL    HW142052   6.205   7.764  10.561  0.9456  0.7083  3.6204
13537SOL    HW242053   6.055   7.776  10.545  1.1627 -1.1137 -2.2928
13538SOL     OW42054   3.271   5.872   6.422 -0.2668  0.4537  0.7285
13538SOL    HW142055   3.250   5.845   6.332  0.9377  1.6004  0.0595
13538SOL    HW242056   3.188   5.905   6.457 -0.4929  1.1948 -0.4440
13539SOL     OW42057   1.491   4.415   2.190 -0.1729 -0.3100 -0.5057
13539SOL    HW142058   1.510   4.372   2.106  0.0859 -0.2471 -0.4815
13539SOL    HW242059   1.492   4.344   2.254  0.8978 -0.1876 -0.3695
13540SOL     OW42060   3.985   1.380   9.193 -0.0577 -0.0427 -0.0917
13540SOL    HW142061   4.012   1.349   9.279 -0.9674 -1.1556 -0.1793
13540SOL    HW242062   4.062   1.365   9.137  0.9684  1.8187  0.7320
13541SOL     OW42063   4.994   5.831   5.748  0.7913 -0.6274 -0.4135
13541SOL    HW142064   4.939   5.754   5.759 -0.6082  0.3484 -0.2953
13541SOL    HW242065   5.047   5.811   5.671  1.4711 -2.2569  0.4406
13542SOL     OW42066   6.443   3.896   2.855 -0.4404  0.6541  0.0732
13542SOL    HW142067   6.526   3.861   2.822 -0.7551  0.2825 -0.3416
13542SOL    HW242068   6.397   3.925   2.776 -0.6482  0.9810  0.3145
13543SOL     OW42069   2.705   4.877   3.313 -0.5436 -0.2041  0.7133
13543SOL    HW142070   2.762   4.952   3.298 -0.5955 -0.3041 -0.0122
13543SOL    HW242071   2.763   4.801   3.310 -1.0285 -0.6435 -3.2319
13544SOL     OW42072   6.884   3.757  12.397  0.7383 -0.0607  0.0383
13544SOL    HW142073   6.869   3.685  12.336 -3.1149 -0.1053  0.7787
13544SOL    HW242074   6.900   3.714  12.481  0.9604 -0.0367  0.0081
13545SOL     OW42075   3.438   0.712   9.583  0.1755  0.0499 -0.0115
13545SOL    HW142076   3.500   0.781   9.607 -0.0574  0.6858 -1.1652
13545SOL    HW242077   3.492   0.644   9.541  0.0567  0.8616 -1.5460
13546SOL     OW42078   2.738   3.982   5.977  0.0225 -0.0432 -0.0306
13546SOL    HW142079   2.785   3.899   5.978  1.7713  0.8142 -2.5426
13546SOL    HW242080   2.673   3.973   5.908  0.3209  0.7122 -0.4226
13547SOL     OW42081   2.890   1.150   1.727 -0.4729 -0.4020 -0.1193
13547SOL    HW142082   2.941   1.224   1.696  0.8201 -1.1750  0.1119
13547SOL    HW242083   2.825   1.135   1.657 -0.0820  0.2869 -0.6443
13548SOL     OW42084   6.209   2.897   0.752  0.2894  0.6728 -0.2577
13548SOL    HW142085   6.118   2.921   0.770 -1.0361 -1.1612 -3.6397
13548SOL    HW242086   6.231   2.942   0.671  1.2744 -1.3206 -1.1764
13549SOL     OW42087   1.170   2.245   0.367 -0.2408 -0.0834 -0.7208
13549SOL    HW142088   1.115   2.199   0.431 -0.4017 -0.1635 -0.9160
13549SOL    HW242089   1.234   2.179   0.340  1.8712  0.7869  1.6924
13550SOL     OW42090   1.838   7.628  11.092  0.3758  0.1638 -0.7115
13550SOL    HW142091   1.789   7.675  11.025 -0.2502 -0.3216 -0.6069
13550SOL    HW242092   1.793   7.544  11.101  0.1693  0.3932  0.6251
13551SOL     OW42093   3.520   2.300   5.754 -0.5156  0.3273  0.1430
13551SOL    HW142094   3.576   2.237   5.800  0.1126  1.9752  1.7413
13551SOL    HW242095   3.447   2.315   5.814 -1.0993  0.5079 -0.6026
13552SOL     OW42096   4.842   4.686   0.385  1.0603 -0.0223  0.1142
13552SOL    HW142097   4.816   4.608   0.336  0.1968  0.6303 -0.4980
13552SOL    HW242098   4.882   4.744   0.320  3.0369 -0.5090  0.8234
13553SOL     OW42099   5.784   0.217   0.926 -0.8633  0.4991 -0.3147
13553SOL    HW142100   5.838   0.206   0.848 -1.7468  2.0114 -1.1810
13553SOL    HW242101   5.725   0.142   0.926  1.2429 -1.2907  0.7410
13554SOL     OW42102   1.174   5.665   6.657  0.6630 -0.1720  0.1969
13554SOL    HW142103   1.081   5.678   6.645  1.2363  1.6764 -3.3715
13554SOL    HW242104   1.203   5.740   6.709  0.3977  0.0804 -0.0240
13555SOL     OW42105   2.437   0.387   3.715  0.0449 -0.1801 -0.4865
13555SOL    HW142106   2.380   0.411   3.788 -0.0462  2.0079 -1.2202
13555SOL    HW242107   2.378   0.374   3.641  0.2288 -1.4214 -0.4419
13556SOL     OW42108   5.231   0.807   3.343  0.0141  0.3485 -0.3797
13556SOL    HW142109   5.283   0.727   3.338 -1.4837 -0.6302 -0.8009
13556SOL    HW242110   5.295   0.875   3.366  1.4258 -0.8339 -0.6379
13557SOL     OW42111   3.826   3.825   0.513  0.4077 -0.1865  0.1871
13557SOL    HW142112   3.918   3.815   0.488  0.0840  0.7030 -1.4759
13557SOL    HW242113   3.783   3.747   0.480  0.7072 -1.1484  1.9385
13558SOL     OW42114   4.190   6.780  10.154  0.0780 -0.1520  0.2316
13558SOL    HW142115   4.095   6.794  10.164  0.2763 -0.4267  3.1824
13558SOL    HW242116   4.200   6.685  10.155  0.4975 -0.1051  1.6135
13559SOL     OW42117   7.210   3.659   0.074 -0.4391  0.3420  0.3766
13559SOL    HW142118   7.185   3.748   0.049 -3.1600 -0.5303 -0.3052
13559SOL    HW242119   7.143   3.632   0.137  1.2296 -0.7284  1.7833
13560SOL     OW42120   2.354   1.435   6.180 -0.3424 -0.5965  0.7013
13560SOL    HW142121   2.397   1.351   6.166 -0.3122 -0.3887 -0.5579
13560SOL    HW242122   2.334   1.467   6.092 -1.5407  0.1089  1.2043
13561SOL     OW42123   2.316   0.983  10.047 -0.4442 -0.4808 -0.1399
13561SOL    HW142124   2.365   0.923   9.991  0.7072  0.8800 -0.6616
13561SOL    HW242125   2.371   0.992  10.125 -1.5757 -1.6189  0.8273
13562SOL     OW42126   4.775   6.893   3.286 -0.2391 -0.0859 -0.0197
13562SOL    HW142127   4.853   6.904   3.341 -0.5995 -0.8107  0.6619
13562SOL    HW242128   4.705   6.937   3.335 -0.2371  0.6763 -0.6915
13563SOL     OW42129   4.246   2.758   3.490  0.5555  0.6822  0.4058
13563SOL    HW142130   4.224   2.728   3.579  0.4059 -0.2556  0.0575
13563SOL    HW242131   4.179   2.823   3.470 -1.3842 -1.3754 -0.2286
13564SOL     OW42132   3.816   6.562  11.107  0.0374  0.8313 -0.2280
13564SOL    HW142133   3.806   6.527  11.018 -0.4769  1.7942 -0.5576
13564SOL    HW242134   3.909   6.547  11.127  0.1978  0.7435 -0.9869
13565SOL     OW42135   2.162   3.542   7.773 -0.0380 -0.1348  0.0176
13565SOL    HW142136   2.115   3.461   7.792  1.7104 -1.7527 -2.0587
13565SOL    HW242137   2.200   3.529   7.686  0.9806  2.6190 -0.0659
13566SOL     OW42138   5.037   0.798   2.839  0.0964  0.0901  0.2987
13566SOL    HW142139   5.125   0.783   2.807 -0.0010  0.1256  0.0124
13566SOL    HW242140   5.049   0.836   2.927  0.3810  1.0569 -0.1428
13567SOL     OW42141   1.439   2.952  11.489 -0.5074  0.0438  0.0328
13567SOL    HW142142   1.373   2.910  11.544 -0.6025  0.4770  0.2527
13567SOL    HW242143   1.474   3.022  11.544  0.7716 -0.7381  0.2462
13568SOL     OW42144   7.947   2.081   9.751  0.3656 -0.5644  0.3317
13568SOL    HW142145   7.873   2.120   9.798 -0.7434 -2.1116 -0.0755
13568SOL    HW242146   7.962   2.140   9.677  0.5576  0.5799  1.2537
13569SOL     OW42147   3.437   3.771   1.643 -0.2964  0.2743 -0.3875
13569SOL    HW142148   3.360   3.718   1.666  0.2572 -1.2967 -1.9187
13569SOL    HW242149   3.507   3.738   1.700 -0.2371  0.1975 -0.5048
13570SOL     OW42150   7.020   4.317   4.725 -0.2601 -0.8861 -0.1597
13570SOL    HW142151   6.994   4.236   4.679 -0.0058 -1.8597  1.3534
13570SOL    HW242152   7.014   4.385   4.658  1.5256 -2.4695 -2.0845
13571SOL     OW42153   7.356   0.270   4.943  0.0388  0.0322 -0.2581
13571SOL    HW142154   7.435   0.320   4.965 -1.0688  2.1663 -0.8401
13571SOL    HW242155   7.316   0.249   5.028  0.7126 -0.2135  0.0045
13572SOL     OW42156   5.700   0.000   8.009  0.1545 -0.2845 -0.2796
13572SOL    HW142157   5.697  -0.063   8.080 -0.1704 -0.4620 -0.4516
13572SOL    HW242158   5.745  -0.046   7.938  1.2202  0.1683  0.0824
13573SOL     OW42159   6.063   6.010   8.120  0.0133 -0.3311  0.4818
13573SOL    HW142160   6.007   5.978   8.190 -0.7934  0.5543  0.2663
13573SOL    HW242161   6.029   5.967   8.041  0.7852 -1.1644  0.5928
13574SOL     OW42162   3.824   1.164   6.990  0.1068 -0.4773  0.1471
13574SOL    HW142163   3.874   1.093   7.028 -1.0545 -1.3772  0.0322
13574SOL    HW242164   3.787   1.211   7.065  2.3669  1.1855  0.3152
13575SOL     OW42165   2.268   0.982   1.521  0.8916 -0.2564 -0.1854
13575SOL    HW142166   2.350   0.936   1.538  1.7007  1.5009  0.8750
13575SOL    HW242167   2.218   0.973   1.602  1.2159  0.9983  0.1757
13576SOL     OW42168   4.093   7.061   8.332  0.0044 -0.3404 -0.2429
13576SOL    HW142169   4.161   7.033   8.394  0.8899  0.9777 -0.5812
13576SOL    HW242170   4.069   6.981   8.285  1.9529 -0.6888 -0.7165
13577SOL     OW42171   6.543   0.051   2.715 -0.0321 -0.2269  0.5225
13577SOL    HW142172   6.562   0.077   2.624  2.1174 -2.3071  0.2853
13577SOL    HW242173   6.504  -0.036   2.707 -1.3078  0.2333  1.5485
13578SOL     OW42174   0.234   6.525   8.724  0.1385  0.7289  0.1443
13578SOL    HW142175   0.252   6.525   8.630  0.6372  0.6484  0.2373
13578SOL    HW242176   0.223   6.617   8.746  3.0709  1.0674  0.5620
13579SOL     OW42177   1.164   1.330   1.224  0.0173 -0.7611 -0.7596
13579SOL    HW142178   1.111   1.282   1.160 -2.1947 -0.7979  0.9509
13579SOL    HW242179   1.132   1.299   1.309  2.0347  0.1107  0.3926
13580SOL     OW42180   5.277   5.315   2.111  0.2610 -0.2718  0.4583
13580SOL    HW142181   5.325   5.377   2.055 -0.3289  0.7250  1.0161
13580SOL    HW242182   5.201   5.290   2.059 -1.3769  2.1993  1.4445
13581SOL     OW42183   0.666   2.492   2.310 -0.1953  0.4662  0.2513
13581SOL    HW142184   0.752   2.504   2.350 -0.1789  0.1066  0.3236
13581SOL    HW242185   0.681   2.432   2.237 -0.1045  1.6508 -0.7354
13582SOL     OW42186   1.468   3.848   4.632  0.7227 -0.3545  0.6778
13582SOL    HW142187   1.486   3.754   4.623  1.0724 -0.1265 -2.4088
13582SOL    HW242188   1.398   3.865   4.569  0.0895  1.3301  1.7833
13583SOL     OW42189   0.704   7.196   1.465 -0.4212 -0.5695 -0.6479
13583SOL    HW142190   0.769   7.236   1.408 -0.5802  0.5500 -0.0677
13583SOL    HW242191   0.717   7.238   1.550 -2.0137 -0.1774 -0.5621
13584SOL     OW42192   3.055   0.157   7.867  0.4076  0.3048  0.5490
13584SOL    HW142193   2.984   0.106   7.904 -0.1793  0.8600  0.2138
13584SOL    HW242194   3.120   0.093   7.839  0.0158 -0.2051  0.8090
13585SOL     OW42195   1.574   0.411   3.543 -0.2495 -0.3774  0.4327
13585SOL    HW142196   1.581   0.455   3.628 -0.7131  0.6108 -0.0177
13585SOL    HW242197   1.663   0.413   3.507 -0.0954 -0.6047  0.7977
13586SOL     OW42198   7.107   1.583   4.348 -0.0629  0.7904  0.3064
13586SOL    HW142199   7.097   1.501   4.301 -2.0253  0.5502  1.0415
13586SOL    HW242200   7.065   1.648   4.293  1.8648  1.4478 -0.4824
13587SOL     OW42201   2.987   2.771   8.889  0.3960 -0.2923 -0.0971
13587SOL    HW142202   2.926   2.710   8.846 -0.6610  1.3834 -1.0759
13587SOL    HW242203   3.015   2.830   8.819  0.1165  1.3351  1.0972
13588SOL     OW42204   0.748   6.058   2.134 -1.2903  0.1508 -0.2512
13588SOL    HW142205   0.685   6.046   2.064 -0.7858 -1.4461 -0.4677
13588SOL    HW242206   0.737   5.982   2.191 -0.9529  0.8752  0.8278
13589SOL     OW42207   6.482   2.082   1.601 -0.0289  0.1030  0.9167
13589SOL    HW142208   6.496   2.039   1.686  0.8696 -2.8227 -0.5754
13589SOL    HW242209   6.406   2.138   1.615 -1.3385 -2.0151  3.1157
13590SOL     OW42210   0.842   6.682  10.221 -0.2878 -0.0934  0.2181
13590SOL    HW142211   0.841   6.615  10.289 -1.4237  0.1342  0.4404
13590SOL    HW242212   0.855   6.634  10.139 -0.2035 -0.4869  0.4630
13591SOL     OW42213   2.762   7.651  11.590  0.4370  0.0265 -0.4290
13591SOL    HW142214   2.701   7.586  11.555  0.7388 -0.0573 -0.7989
13591SOL    HW242215   2.812   7.604  11.657 -1.9415  0.8299  2.1078
13592SOL     OW42216   2.427   4.364   6.857 -0.5975  0.1404  0.4106
13592SOL    HW142217   2.360   4.296   6.866 -1.2743  0.6991 -0.2966
13592SOL    HW242218   2.508   4.321   6.884 -1.2516 -0.5059  1.4070
13593SOL     OW42219   0.676   2.121   3.209  0.2540  0.2925 -0.1594
13593SOL    HW142220   0.636   2.142   3.294  1.3840  0.5470  0.3253
13593SOL    HW242221   0.609   2.145   3.145  0.3739  2.6772  0.5112
13594SOL     OW42222   6.351   6.609   2.779  0.6757  0.4920  0.2775
13594SOL    HW142223   6.402   6.685   2.807  1.3862 -0.8351  2.9523
13594SOL    HW242224   6.329   6.563   2.861  0.2717 -2.1675 -1.1985
13595SOL     OW42225   1.722   5.133   4.971 -1.0565 -0.1281 -0.8633
13595SOL    HW142226   1.738   5.053   4.922 -1.4347 -0.7520  0.0046
13595SOL    HW242227   1.741   5.204   4.909 -0.2366 -0.8772 -1.4880
13596SOL     OW42228   7.667   6.995   8.672  0.1751  0.1609 -0.6462
13596SOL    HW142229   7.762   6.995   8.667  0.1411  0.5942 -1.5310
13596SOL    HW242230   7.639   7.026   8.586 -0.7285  2.2800  0.3611
13597SOL     OW42231   0.153   5.112   4.976 -0.5487  0.6138 -0.8970
13597SOL    HW142232   0.104   5.030   4.988  1.4618 -0.7231 -1.4209
13597SOL    HW242233   0.236   5.085   4.938 -0.3998  3.0869 -2.5285
13598SOL     OW42234   1.098   3.328   6.915 -0.0840  0.2915 -0.6283
13598SOL    HW142235   1.079   3.319   7.009 -1.6552 -1.0899 -1.0264
13598SOL    HW242236   1.088   3.240   6.881  1.2368  0.6390 -1.9979
13599SOL     OW42237   4.899   0.471   4.194 -0.2569 -0.1028 -0.4972
13599SOL    HW142238   4.834   0.439   4.256  0.8896 -2.0680 -0.2371
13599SOL    HW242239   4.858   0.461   4.108 -0.5275 -0.7554 -0.2952
13600SOL     OW42240   5.538   2.674   5.368 -0.1934 -0.5021  0.0757
13600SOL    HW142241   5.485   2.716   5.300  1.3739  2.5755  0.5816
13600SOL    HW242242   5.615   2.643   5.322  0.1207  0.1190  0.1720
13601SOL     OW42243   3.407   3.693   3.968  0.3024 -0.4575  0.2476
13601SOL    HW142244   3.432   3.672   4.058 -0.4188 -0.4145  0.4628
13601SOL    HW242245   3.324   3.648   3.956 -0.5660  1.1145  0.2397
13602SOL     OW42246   2.822   1.279   8.280 -0.6411  0.6428  0.0322
13602SOL    HW142247   2.917   1.291   8.283 -0.6285  0.4386  0.6197
13602SOL    HW242248   2.793   1.337   8.210 -0.1149  0.9227  0.0364
13603SOL     OW42249   2.018   1.422   4.094 -0.1482  0.1851  0.3809
13603SOL    HW142250   2.042   1.395   4.005 -0.3656 -2.7683  1.1252
13603SOL    HW242251   2.101   1.426   4.141 -0.3054 -2.3393  1.0027
13604SOL     OW42252   7.664   6.873   3.827 -0.1405 -0.0489 -0.5322
13604SOL    HW142253   7.598   6.942   3.818  0.8371  0.8060 -1.3594
13604SOL    HW242254   7.738   6.916   3.869  0.6385 -0.4767 -1.4347
13605SOL     OW42255   7.609   6.517   2.532 -0.1257 -0.6158 -0.1553
13605SOL    HW142256   7.632   6.506   2.440  0.1302 -0.4643 -0.1102
13605SOL    HW242257   7.691   6.501   2.579  0.1520  0.9492 -0.0464
13606SOL     OW42258   6.905   6.400   6.677 -0.9690  0.0235  0.2049
13606SOL    HW142259   6.855   6.360   6.606 -0.7269  0.3010 -0.1278
13606SOL    HW242260   6.962   6.331   6.709 -0.2255  0.2224 -0.6724
13607SOL     OW42261   6.760   6.431   3.899 -0.0530 -0.2449  0.0329
13607SOL    HW142262   6.764   6.464   3.809 -0.3037 -0.4361 -0.0506
13607SOL    HW242263   6.794   6.342   3.893 -0.7586 -0.5200 -0.0068
13608SOL     OW42264   7.903   5.222   9.174  0.4072 -0.0807 -0.1896
13608SOL    HW142265   7.955   5.143   9.191 -1.1221 -1.0104  0.3523
13608SOL    HW242266   7.936   5.286   9.237 -0.1056 -1.1448  1.2280
13609SOL     OW42267   0.292   7.503   1.511 -0.0688 -0.3039  0.0484
13609SOL    HW142268   0.312   7.430   1.570  0.0707 -0.8898 -0.7163
13609SOL    HW242269   0.378   7.536   1.485 -0.1069 -0.8842 -0.8468
13610SOL     OW42270   1.325   6.391   0.912 -0.2374 -0.5346 -0.0089
13610SOL    HW142271   1.319   6.452   0.985  0.5026 -0.4691  0.0136
13610SOL    HW242272   1.339   6.306   0.952  0.3267 -0.4762 -0.0644
13611SOL     OW42273   4.302   2.014   2.003  0.2340  0.8907  0.1697
13611SOL    HW142274   4.316   1.928   1.965 -2.3399  0.1917  0.5857
13611SOL    HW242275   4.380   2.030   2.056  0.4635 -1.5253  0.6715
13612SOL     OW42276   0.409   2.522   1.928 -0.3539 -0.0089  0.1590
13612SOL    HW142277   0.411   2.616   1.943  0.2138 -0.3059  2.3919
13612SOL    HW242278   0.316   2.500   1.929 -0.5390  0.6176 -1.2943
13613SOL     OW42279   6.020   1.358   9.812 -0.1836  0.1490 -0.3142
13613SOL    HW142280   6.066   1.300   9.751 -0.9366  0.0477 -0.8100
13613SOL    HW242281   5.928   1.334   9.801 -0.2559 -0.6709  1.7207
13614SOL     OW42282   6.386   1.392   1.240 -0.4594  0.3348  0.1821
13614SOL    HW142283   6.376   1.468   1.182  0.5998  0.3745  0.0236
13614SOL    HW242284   6.309   1.338   1.222 -1.1714  1.3046  0.2041
13615SOL     OW42285   5.500   4.655   1.530  0.1206  0.0498 -0.0513
13615SOL    HW142286   5.472   4.715   1.600 -0.1363 -0.5715  0.3856
13615SOL    HW242287   5.507   4.570   1.572 -2.5141 -0.8944 -1.2648
13616SOL     OW42288   1.272   4.389   2.432 -0.4533 -0.2859 -0.0383
13616SOL    HW142289   1.346   4.340   2.467 -3.0531 -2.1146  3.5113
13616SOL    HW242290   1.241   4.336   2.359 -1.2121 -2.3711  1.6755
13617SOL     OW42291   4.703   7.356   9.462 -0.4657  0.3810  0.1137
13617SOL    HW142292   4.629   7.365   9.522 -1.0846 -1.0620 -0.3917
13617SOL    HW242293   4.694   7.268   9.425  1.8021 -0.0406  0.4174
13618SOL     OW42294   0.949   2.815  11.246  0.3290 -0.7751  0.2116
13618SOL    HW142295   0.989   2.901  11.231 -1.7285  0.1282 -0.4951
13618SOL    HW242296   0.939   2.809  11.341 -1.0621  0.5683  0.1860
13619SOL     OW42297   5.775   2.718  10.757 -0.1029 -0.3002  0.0819
13619SOL    HW142298   5.848   2.672  10.797  0.0669  1.0633  1.3740
13619SOL    HW242299   5.717   2.647  10.726  1.0574 -1.3774  0.3049
13620SOL     OW42300   1.539   0.371  12.197 -0.4176 -0.2144 -0.2744
13620SOL    HW142301   1.525   0.348  12.105  2.0568 -0.9398 -0.5572
13620SOL    HW242302   1.531   0.288  12.244  2.5596 -0.7656 -0.4991
13621SOL     OW42303   7.792   2.381   8.116  0.0408 -0.1045  0.0809
13621SOL    HW142304   7.736   2.458   8.110  1.4950  0.9326 -0.9140
13621SOL    HW242305   7.785   2.353   8.208  0.6846  2.1627  0.8796
13622SOL     OW42306   2.605   1.501  11.443  0.2638  0.1467 -0.8662
13622SOL    HW142307   2.695   1.471  11.430 -0.3160 -1.4849 -1.3932
13622SOL    HW242308   2.594   1.501  11.538  0.2988 -1.3994 -0.8337
13623SOL     OW42309   0.143   0.466  11.581  0.4468 -0.6988  0.3342
13623SOL    HW142310   0.190   0.402  11.635  1.4453  1.3265  2.0271
13623SOL    HW242311   0.210   0.529  11.555 -0.8416  0.7847  0.4626
13624SOL     OW42312   5.492   4.143   4.298 -0.1869  0.1373 -0.1847
13624SOL    HW142313   5.453   4.166   4.214 -0.0351  2.2508  0.2755
13624SOL    HW242314   5.463   4.213   4.357 -0.9686 -1.7093  1.7463
13625SOL     OW42315   6.745   3.690   7.082  0.1281 -0.0742 -0.2947
13625SOL    HW142316   6.695   3.656   7.156  0.0522 -2.1636 -1.2307
13625SOL    HW242317   6.754   3.615   7.023  2.0402  0.9554 -1.4084
13626SOL     OW42318   0.253   6.196  12.272  0.0740 -0.2383  0.2762
13626SOL    HW142319   0.232   6.290  12.268  0.7274  0.0845  2.8691
13626SOL    HW242320   0.342   6.194  12.306 -0.4956 -1.8138  1.7800
13627SOL     OW42321   3.217   2.586  11.142 -0.6333 -0.1602  0.7203
13627SOL    HW142322   3.251   2.555  11.226  0.6014  0.8989  0.6411
13627SOL    HW242323   3.124   2.601  11.158 -0.1720  1.3105  2.3142
13628SOL     OW42324   4.502   2.939   4.550 -0.1230 -0.3815  0.2192
13628SOL    HW142325   4.561   2.904   4.483 -1.7224  0.6017 -1.8217
13628SOL    HW242326   4.554   3.005   4.596  0.6102 -0.0543 -1.0393
13629SOL     OW42327   0.784   5.114   5.385 -0.0736 -0.0191 -0.1377
13629SOL    HW142328   0.874   5.114   5.417 -0.0858  0.5383 -0.0998
13629SOL    HW242329   0.786   5.058   5.307  0.1847 -0.4649  0.1856
13630SOL     OW42330   3.089   3.863   4.393 -0.5761 -0.2385  0.0550
13630SOL    HW142331   3.136   3.909   4.463  0.4596 -0.0005 -0.7724
13630SOL    HW242332   3.099   3.919   4.317 -0.7834 -0.9982 -0.5400
13631SOL     OW42333   6.324   0.769  11.772  0.0680 -0.2871  0.0948
13631SOL    HW142334   6.347   0.823  11.696 -0.2498  0.6181  0.6213
13631SOL    HW242335   6.249   0.813  11.810 -0.4200 -1.3163  0.3531
13632SOL     OW42336   4.315   4.498   5.952 -0.3145  0.0145  0.0153
13632SOL    HW142337   4.252   4.438   5.991 -0.7426 -0.6435 -1.6094
13632SOL    HW242338   4.364   4.533   6.027 -0.9758 -1.2929  1.1088
13633SOL     OW42339   6.843   3.336   9.426 -0.0420  0.2561 -0.3052
13633SOL    HW142340   6.753   3.326   9.459 -0.4389  3.1168 -0.2789
13633SOL    HW242341   6.841   3.293   9.340 -0.5270 -2.4019  0.9415
13634SOL     OW42342   0.145   1.623  10.703 -0.1810  0.0659 -0.2640
13634SOL    HW142343   0.155   1.537  10.663  0.6666  0.0123  0.0508
13634SOL    HW242344   0.232   1.646  10.734 -0.6335  0.5094  0.7266
13635SOL     OW42345   4.123   1.032   0.531 -0.1419  0.0740  0.5392
13635SOL    HW142346   4.129   1.012   0.624  2.6205 -0.5873  0.3047
13635SOL    HW242347   4.200   1.086   0.513  0.6437 -1.6499 -1.7523
13636SOL     OW42348   2.252   4.258   6.561 -0.4060 -0.0955  0.0372
13636SOL    HW142349   2.157   4.250   6.570 -0.6222  2.7021  1.0697
13636SOL    HW242350   2.287   4.182   6.607 -2.1150 -0.0185  1.5619
13637SOL     OW42351   0.907   3.588   0.533  0.0180  0.5867 -0.2566
13637SOL    HW142352   0.899   3.521   0.601  0.6032 -0.9366 -1.6387
13637SOL    HW242353   0.827   3.641   0.542 -0.6466 -0.5151  0.6034
13638SOL     OW42354   3.029   2.509   0.835 -0.2792  0.0087 -0.1198
13638SOL    HW142355   3.093   2.543   0.772 -1.9259 -1.3436 -2.7079
13638SOL    HW242356   3.081   2.482   0.910  1.5727  3.7196  0.1199
13639SOL     OW42357   7.268   1.814   2.061 -0.4105  0.8528 -0.2168
13639SOL    HW142358   7.356   1.850   2.048 -0.3515  0.3990 -1.0949
13639SOL    HW242359   7.274   1.769   2.146  0.1677  0.9321 -0.2087
13640SOL     OW42360   1.022   4.201   0.298 -0.1681 -0.2169  0.1004
13640SOL    HW142361   1.117   4.197   0.301 -0.1263  1.0348  1.4819
13640SOL    HW242362   1.002   4.292   0.274 -1.0052 -0.2753  0.5210
13641SOL     OW42363   3.166   6.840   7.024  0.4941 -0.2655 -0.2775
13641SOL    HW142364   3.206   6.802   7.102  3.0080  1.8774 -0.3946
13641SOL    HW242365   3.093   6.892   7.056  0.5681 -0.6173  0.4708
13642SOL     OW42366   2.479   0.408   1.916 -0.2598  0.7496 -0.0062
13642SOL    HW142367   2.396   0.394   1.962  0.3116 -0.2811  0.7614
13642SOL    HW242368   2.543   0.355   1.964  0.8552  1.5252 -0.5747
13643SOL     OW42369   1.264   3.167   7.259  0.1084 -0.1684  0.5453
13643SOL    HW142370   1.282   3.255   7.227 -0.8190  0.2004  0.9837
13643SOL    HW242371   1.248   3.179   7.353  2.0567 -1.1127  1.0567
13644SOL     OW42372   1.571   7.399   5.801  0.1933  0.1731 -0.2729
13644SOL    HW142373   1.602   7.464   5.864  1.4166 -0.8024  0.1906
13644SOL    HW242374   1.614   7.317   5.828 -1.9309 -1.0336 -0.3260
13645SOL     OW42375   0.539   1.863  10.927 -0.4225  0.3913 -0.0948
13645SOL    HW142376   0.564   1.818  11.007 -0.4228 -1.4909 -1.1035
13645SOL    HW242377   0.543   1.956  10.949  0.9557 -0.0471  1.6602
13646SOL     OW42378   2.165   6.840   3.586 -0.1084 -0.1664  0.0016
13646SOL    HW142379   2.203   6.765   3.630  1.6840  0.9388  0.4376
13646SOL    HW242380   2.084   6.858   3.634 -0.3179 -1.5132  0.1763
13647SOL     OW42381   1.751   2.689   4.853  0.0683 -0.3524  0.2846
13647SOL    HW142382   1.784   2.775   4.827  0.1798 -0.6253 -0.5218
13647SOL    HW242383   1.762   2.687   4.948  0.5199  0.3349  0.2607
13648SOL     OW42384   0.144   6.302  10.274  0.2647 -0.3918  0.3728
13648SOL    HW142385   0.217   6.241  10.272 -1.5621 -2.7192 -1.1540
13648SOL    HW242386   0.169   6.372  10.213  2.3465  0.4378  2.0649
13649SOL     OW42387   1.487   6.106   7.781 -0.2446 -0.3748 -0.1573
13649SOL    HW142388   1.447   6.185   7.743  1.7060  0.2600 -1.0474
13649SOL    HW242389   1.452   6.102   7.870  0.2180  2.0290  0.2233
13650SOL     OW42390   7.599   2.323   9.135 -0.5486 -0.1471  0.0491
13650SOL    HW142391   7.641   2.259   9.192 -0.0633  0.0114 -0.1280
13650SOL    HW242392   7.596   2.403   9.188  1.8699  0.6244 -0.8679
13651SOL     OW42393   3.083   5.112   4.164  0.0699 -0.0752  0.1315
13651SOL    HW142394   3.122   5.025   4.174  0.4656  0.2040  1.1777
13651SOL    HW242395   3.018   5.118   4.234  1.1397  1.0264  1.0753
13652SOL     OW42396   3.526   1.850  10.353  0.2407 -0.8187  0.1062
13652SOL    HW142397   3.567   1.895  10.427  0.6269 -0.9969  0.0028
13652SOL    HW242398   3.442   1.820  10.386 -0.3619  0.6276 -0.0282
13653SOL     OW42399   6.177   2.514   1.197  0.5270 -0.3089 -0.4047
13653SOL    HW142400   6.105   2.555   1.149  0.9411  1.4034  0.3536
13653SOL    HW242401   6.255   2.559   1.166  1.0424 -0.7043  0.2921
13654SOL     OW42402   2.488   3.083  11.520 -0.4282  0.3869 -0.0226
13654SOL    HW142403   2.424   3.057  11.586 -0.4124  1.2764  0.3493
13654SOL    HW242404   2.457   3.042  11.439  0.6956 -2.5601  0.8811
13655SOL     OW42405   0.517   6.822   4.520  0.3931  0.8343  0.8820
13655SOL    HW142406   0.570   6.886   4.567 -0.0514  0.5404  1.8279
13655SOL    HW242407   0.447   6.799   4.582 -1.6875  2.2301 -0.7791
13656SOL     OW42408   6.400   6.668   7.151 -0.1649 -0.2008  0.2339
13656SOL    HW142409   6.320   6.655   7.201 -1.8723 -2.2506 -2.7041
13656SOL    HW242410   6.415   6.583   7.108  1.8431  1.0078 -1.6826
13657SOL     OW42411   5.723   1.456   3.598  0.6802 -0.4687  0.2641
13657SOL    HW142412   5.706   1.402   3.675  0.6379  0.2344  0.7517
13657SOL    HW242413   5.662   1.529   3.606  0.1915 -0.7392 -0.8014
13658SOL     OW42414   5.291   0.166   5.927  0.2401  0.6313  0.2239
13658SOL    HW142415   5.261   0.091   5.875  0.9121  0.5694 -0.0809
13658SOL    HW242416   5.268   0.143   6.017  0.8391 -0.1474  0.1889
13659SOL     OW42417   5.441   5.050   5.950  0.1431 -0.2608 -0.1278
13659SOL    HW142418   5.530   5.017   5.936  0.1886  0.9807 -3.5133
13659SOL    HW242419   5.444   5.090   6.037  3.8197  2.3808 -1.2464
13660SOL     OW42420   5.694   5.869   9.862 -0.0495 -0.5200  0.2997
13660SOL    HW142421   5.734   5.940   9.813  0.4581 -1.1428 -0.2020
13660SOL    HW242422   5.654   5.912   9.938 -0.1755  0.3540 -0.2418
13661SOL     OW42423   6.069   6.274   8.172  0.3569  0.1386  0.3331
13661SOL    HW142424   5.998   6.302   8.113  1.5644  2.2015 -0.2544
13661SOL    HW242425   6.087   6.184   8.147 -0.9999  0.0883 -0.5878
13662SOL     OW42426   5.394   5.513   0.620  0.8829 -0.6536 -0.3022
13662SOL    HW142427   5.338   5.590   0.633  1.4763 -0.1657 -0.5985
13662SOL    HW242428   5.444   5.507   0.702  1.5743 -0.1032 -0.6740
13663SOL     OW42429   4.786   7.620   4.713 -0.3819 -0.2497  0.1192
13663SOL    HW142430   4.711   7.612   4.654  0.7823 -0.3482 -1.4119
13663SOL    HW242431   4.862   7.630   4.655  0.7561  0.2625  1.6209
13664SOL     OW42432   2.314   3.906   0.861  0.1057  0.4342  0.3699
13664SOL    HW142433   2.234   3.867   0.827  0.4720  0.3502 -0.4317
13664SOL    HW242434   2.314   3.995   0.825 -0.0465  0.7165  1.0617
13665SOL     OW42435   7.420   6.415   0.341 -0.4672 -0.0282  0.4153
13665SOL    HW142436   7.483   6.479   0.375 -0.8380  0.2896  0.5265
13665SOL    HW242437   7.417   6.431   0.247 -1.5476  1.0531  0.6031
13666SOL     OW42438   4.735   1.466   3.648  0.5007 -0.2722  0.3252
13666SOL    HW142439   4.655   1.452   3.699  1.6369 -1.6201  1.8564
13666SOL    HW242440   4.733   1.558   3.625 -2.4953 -0.6741 -1.5239
13667SOL     OW42441   3.813   1.242   8.209 -0.1767 -0.5613 -0.6349
13667SOL    HW142442   3.845   1.170   8.264  0.9749 -0.4506 -1.1397
13667SOL    HW242443   3.777   1.199   8.131 -0.2965 -0.6316 -0.5414
13668SOL     OW42444   2.178   7.641   7.103  0.2154  0.2094  0.9470
13668SOL    HW142445   2.119   7.716   7.111  0.1031  0.0625  1.5500
13668SOL    HW242446   2.161   7.606   7.016 -1.1913 -0.3215  1.4130
13669SOL     OW42447   2.867   0.310   5.845  0.1536  0.3103  0.4747
13669SOL    HW142448   2.793   0.365   5.871  1.1470  1.0094  1.9988
13669SOL    HW242449   2.833   0.221   5.847 -1.4564  0.7735 -1.8966
13670SOL     OW42450   4.510   7.143   5.394  0.0348 -0.0433  0.1450
13670SOL    HW142451   4.498   7.050   5.414 -0.2553 -0.1359 -0.4415
13670SOL    HW242452   4.560   7.145   5.313 -0.6924  0.2915 -0.3122
13671SOL     OW42453   1.965   3.625   4.424  0.1226  0.2598  0.0423
13671SOL    HW142454   1.880   3.584   4.437  0.8633 -1.1749  0.5204
13671SOL    HW242455   1.952   3.716   4.450 -1.6890  0.5025 -1.5200
13672SOL     OW42456   4.655   6.189  10.210  0.1156  0.0801  0.1060
13672SOL    HW142457   4.613   6.166  10.294 -1.8981  2.1276 -0.2518
13672SOL    HW242458   4.613   6.132  10.146  1.0610 -0.8934  0.3050
13673SOL     OW42459   5.487   0.635   5.109  0.2824  0.0857 -0.5833
13673SOL    HW142460   5.536   0.555   5.091  1.3506  0.8615 -1.2591
13673SOL    HW242461   5.484   0.681   5.025 -0.7473  0.5252 -0.3196
13674SOL     OW42462   0.763   4.170   4.202 -1.0379  0.4216 -0.1539
13674SOL    HW142463   0.691   4.126   4.157 -1.1408  0.3922  0.0373
13674SOL    HW242464   0.724   4.250   4.238 -1.3261 -0.2750  1.1502
13675SOL     OW42465   5.995   3.743   7.538  0.1330 -0.4887 -0.0291
13675SOL    HW142466   5.995   3.837   7.556  2.1667 -0.4328 -0.1306
13675SOL    HW242467   6.027   3.703   7.619 -0.6479 -1.1246 -0.0121
13676SOL     OW42468   6.791   4.841   9.021 -0.6468 -0.5969 -0.5309
13676SOL    HW142469   6.832   4.918   8.983 -0.3703 -0.7948 -0.6309
13676SOL    HW242470   6.860   4.801   9.074 -1.5139  0.7457  1.8129
13677SOL     OW42471   4.989   2.404   4.866  0.3976 -0.3066 -0.2505
13677SOL    HW142472   4.926   2.472   4.890  1.0866  0.2582  0.0240
13677SOL    HW242473   5.004   2.355   4.946 -2.2781 -2.7020 -1.0748
13678SOL     OW42474   7.303   4.759  11.131  0.2149  0.4565 -0.3986
13678SOL    HW142475   7.336   4.718  11.051 -0.3475 -1.6943  0.3884
13678SOL    HW242476   7.285   4.850  11.107  1.8667  0.3541 -2.1734
13679SOL     OW42477   2.230   2.506   3.076 -0.3075  0.2444 -0.2157
13679SOL    HW142478   2.279   2.456   3.142 -1.3217  1.8414  1.8683
13679SOL    HW242479   2.297   2.550   3.024  0.5393 -1.5995 -0.7812
13680SOL     OW42480   0.989   6.996   6.390 -0.0232  0.2119  0.0275
13680SOL    HW142481   0.920   7.063   6.394 -0.3237 -0.1458  1.2515
13680SOL    HW242482   1.070   7.046   6.386 -0.0866  0.7728  3.2218
13681SOL     OW42483   4.745   4.069   0.095  0.5232 -0.3574 -0.5448
13681SOL    HW142484   4.796   4.093   0.017 -0.1710 -0.8311 -1.1549
13681SOL    HW242485   4.807   4.080   0.167  1.2067  0.0134 -1.1617
13682SOL     OW42486   7.771   0.920   9.481 -0.1698 -0.1468 -0.3290
13682SOL    HW142487   7.680   0.897   9.500 -0.5238  1.1448 -0.3554
13682SOL    HW242488   7.765   1.003   9.433  1.0636  0.8202  1.0797
13683SOL     OW42489   2.349   2.278   4.585 -0.3505  0.2423  0.1784
13683SOL    HW142490   2.389   2.350   4.634 -0.6042 -0.5924  1.6674
13683SOL    HW242491   2.415   2.208   4.587 -0.8430 -0.2227  0.3935
13684SOL     OW42492   6.910   6.373  11.627 -0.1497 -0.1305  0.4756
13684SOL    HW142493   6.823   6.410  11.613  0.0467 -0.2372 -1.1274
13684SOL    HW242494   6.928   6.322  11.549  0.7806 -1.2989  1.4144
13685SOL     OW42495   0.813   0.282  11.419 -0.1815  0.5036 -0.0634
13685SOL    HW142496   0.839   0.352  11.360  3.5741 -1.3408 -0.8825
13685SOL    HW242497   0.843   0.310  11.505  0.9489  0.1208 -0.3218
13686SOL     OW42498   6.439   7.142  11.789  0.3291  0.7238 -0.6234
13686SOL    HW142499   6.396   7.151  11.874  0.5956  0.0472 -0.4105
13686SOL    HW242500   6.374   7.175  11.726 -0.7954 -0.9010 -0.3718
13687SOL     OW42501   6.316   0.998   2.651  0.3492 -0.2833  0.5296
13687SOL    HW142502   6.307   1.010   2.556 -0.7655 -0.4124  0.6014
13687SOL    HW242503   6.376   0.924   2.661  0.2345 -0.4637 -0.0782
13688SOL     OW42504   4.865   5.500   7.807 -0.0102 -0.5378  0.1817
13688SOL    HW142505   4.867   5.454   7.723 -2.2642  0.4179 -0.4658
13688SOL    HW242506   4.805   5.448   7.862 -2.0817  1.1307 -0.3505
13689SOL     OW42507   2.405   1.441   9.157  0.4521  0.2582  0.1936
13689SOL    HW142508   2.430   1.404   9.072  0.5811  2.9727 -1.0333
13689SOL    HW242509   2.466   1.513   9.172 -0.4503  0.7299  1.9481
13690SOL     OW42510   2.136   1.696   1.735 -1.1102  0.0282  0.3674
13690SOL    HW142511   2.063   1.746   1.774 -0.9426  0.6252 -0.0621
13690SOL    HW242512   2.183   1.761   1.684 -0.3148 -0.3773  0.5805
13691SOL     OW42513   7.923   7.696   8.229  0.2130 -0.3323 -0.2672
13691SOL    HW142514   7.874   7.763   8.182 -0.7218 -1.5142 -1.0632
13691SOL    HW242515   7.856   7.632   8.254  0.9816 -0.6755  1.0134
13692SOL     OW42516   7.470   0.714   5.291 -0.1877 -0.2936 -0.4819
13692SOL    HW142517   7.501   0.664   5.367 -0.0663  0.1404 -0.2433
13692SOL    HW242518   7.411   0.654   5.246 -0.4014 -0.4952  0.0564
13693SOL     OW42519   3.719   3.049  11.135  0.4553 -0.2233  0.2415
13693SOL    HW142520   3.660   2.974  11.133  2.4572 -1.8818  0.1281
13693SOL    HW242521   3.746   3.056  11.226  2.3579 -1.4397 -0.1688
13694SOL     OW42522   0.266   3.361   1.611  0.0923  0.1564  0.4961
13694SOL    HW142523   0.279   3.331   1.521 -0.1878  0.7393  0.2600
13694SOL    HW242524   0.291   3.453   1.610 -1.0635  0.4812  0.7409
13695SOL     OW42525   0.785   6.867   7.395 -0.1467 -0.2935 -0.3680
13695SOL    HW142526   0.813   6.920   7.470 -0.4934 -0.4099 -0.1557
13695SOL    HW242527   0.781   6.928   7.322 -2.5947  0.4539  0.3062
13696SOL     OW42528   6.814   2.694   1.658  0.4800  0.7149  0.3210
13696SOL    HW142529   6.810   2.789   1.648  0.0579  0.5574 -1.4330
13696SOL    HW242530   6.865   2.664   1.582  1.3204 -0.4146  1.2814
13697SOL     OW42531   6.826   3.282  10.066 -0.2006  0.4530 -0.2313
13697SOL    HW142532   6.891   3.221  10.031  0.4377  1.7663 -1.4356
13697SOL    HW242533   6.750   3.228  10.085  1.0142 -1.0156  0.5885
13698SOL     OW42534   2.361   4.916  10.338 -0.5722 -0.5821 -0.0236
13698SOL    HW142535   2.323   4.906  10.250  2.1545 -0.6526 -1.3028
13698SOL    HW242536   2.353   5.009  10.357 -0.4053 -0.4078 -0.7576
13699SOL     OW42537   3.976   0.372  10.242 -0.6352 -0.0024 -0.7868
13699SOL    HW142538   3.922   0.314  10.188 -1.8543  0.4405 -0.0937
13699SOL    HW242539   4.019   0.313  10.304  2.1056 -0.7389 -3.1741
13700SOL     OW42540   7.135   5.370  10.347 -0.6788  0.0087 -0.3219
13700SOL    HW142541   7.112   5.361  10.254  1.2164  1.2697 -0.9695
13700SOL    HW242542   7.230   5.378  10.347 -0.6718  0.3785  1.7286
13701SOL     OW42543   6.475   5.290   8.214  0.7653  1.0986  0.1073
13701SOL    HW142544   6.468   5.275   8.308  1.0087 -1.1276 -0.1685
13701SOL    HW242545   6.430   5.373   8.199 -3.1741 -0.5239  1.6517
13702SOL     OW42546   1.712   0.809   7.083  0.0823 -0.6855 -0.0353
13702SOL    HW142547   1.620   0.782   7.081 -0.1738  0.1817 -0.0658
13702SOL    HW242548   1.751   0.764   7.008 -0.0147 -2.0815  0.7189
13703SOL     OW42549   6.513   3.727   1.679 -0.3503  0.1284  0.1922
13703SOL    HW142550   6.449   3.784   1.636 -0.9943 -0.6187  0.1421
13703SOL    HW242551   6.464   3.680   1.746  0.1984 -0.2644  0.3352
13704SOL     OW42552   2.873   6.282   0.944 -0.9578 -0.2419  0.6841
13704SOL    HW142553   2.903   6.203   0.988  1.8262  0.1692 -0.2662
13704SOL    HW242554   2.881   6.262   0.851 -2.3658  0.4425  0.3911
13705SOL     OW42555   7.049   0.174  11.375 -0.1627  0.3019 -0.9111
13705SOL    HW142556   7.013   0.108  11.435 -1.4522  1.4604 -0.3599
13705SOL    HW242557   6.998   0.164  11.295 -1.5242  1.6525 -0.2763
13706SOL     OW42558   3.062   2.936   4.166 -0.5496  0.4238  0.0235
13706SOL    HW142559   3.064   2.841   4.155 -0.6711  0.0965  2.2845
13706SOL    HW242560   3.151   2.965   4.148 -0.3625 -0.2082 -0.0647
13707SOL     OW42561   5.228   1.812   1.889  0.2050  0.5161 -0.2705
13707SOL    HW142562   5.147   1.861   1.878  1.0505  2.0263 -0.0178
13707SOL    HW242563   5.235   1.797   1.983  0.4462  0.8204 -0.2365
13708SOL     OW42564   1.746   6.841   2.891  0.4818  0.2119 -0.4247
13708SOL    HW142565   1.791   6.760   2.866  1.3286  0.1816  1.0878
13708SOL    HW242566   1.655   6.815   2.904  0.9600 -0.7833  1.1751
13709SOL     OW42567   5.533   7.621   9.502 -0.0530  0.8465  0.1327
13709SOL    HW142568   5.558   7.600   9.592 -0.2438  0.9179  0.2027
13709SOL    HW242569   5.610   7.662   9.465  0.3917 -0.1233 -0.0601
13710SOL     OW42570   5.951   5.653   0.123 -0.0902 -0.2853  0.3361
13710SOL    HW142571   5.951   5.629   0.215 -0.0713 -0.8188  0.2008
13710SOL    HW242572   5.971   5.571   0.077  0.4082  0.0876 -0.1144
13711SOL     OW42573   4.678   7.908   0.010 -0.5876  0.0455 -0.0549
13711SOL    HW142574   4.685   7.853   0.089 -1.3103  0.7316  0.5134
13711SOL    HW242575   4.768   7.933  -0.011  0.0428 -3.0561 -1.6057
13712SOL     OW42576   0.974   6.744  12.345  0.3047  0.1722  0.0952
13712SOL    HW142577   1.006   6.834  12.339 -1.2656  0.9132  1.7646
13712SOL    HW242578   0.886   6.753  12.383 -0.5817 -1.9572 -1.3222
13713SOL     OW42579   4.678   2.980   8.130 -0.1109  0.5131  0.2228
13713SOL    HW142580   4.612   2.930   8.176 -0.1273  1.6918  1.5732
13713SOL    HW242581   4.702   3.050   8.191  1.0864  1.1672 -0.9276
13714SOL     OW42582   6.496   0.034   3.852 -0.4570  0.3073 -0.0232
13714SOL    HW142583   6.559   0.029   3.780 -1.4359 -1.5377 -0.8173
13714SOL    HW242584   6.413   0.005   3.813 -1.1135 -0.2584  1.7251
13715SOL     OW42585   7.666   6.158  11.051 -0.1240  0.2924  0.2095
13715SOL    HW142586   7.640   6.144  10.960  0.9192  0.6090 -0.1506
13715SOL    HW242587   7.635   6.246  11.072 -1.3050 -0.1841  0.5133
13716SOL     OW42588   0.979   3.390   8.195  0.2491  0.3167  0.3100
13716SOL    HW142589   0.974   3.305   8.151 -2.6451 -0.9534  2.7222
13716SOL    HW242590   1.066   3.389   8.236  0.9092 -0.7382 -1.0321
13717SOL     OW42591   0.587   1.053  10.777  0.2005  0.1854 -0.0499
13717SOL    HW142592   0.585   1.074  10.684  0.8454  1.6442  0.2402
13717SOL    HW242593   0.596   1.138  10.821  0.8794 -0.5460  1.2923
13718SOL     OW42594   3.107   6.013   4.435 -0.8029 -0.2554  0.0110
13718SOL    HW142595   3.090   5.933   4.485 -0.2503 -0.2783  0.1669
13718SOL    HW242596   3.198   6.034   4.453 -0.7602  0.0539 -0.5395
13719SOL     OW42597   4.917   2.987   5.013  0.3932 -0.0432 -0.0623
13719SOL    HW142598   4.866   3.067   5.000  1.2363  0.5567  0.2407
13719SOL    HW242599   4.852   2.921   5.036 -0.2635  0.6825  0.2128
13720SOL     OW42600   6.620   4.621  12.154 -0.1728  0.3638  0.2095
13720SOL    HW142601   6.702   4.612  12.106  1.0872 -0.9059  2.4246
13720SOL    HW242602   6.595   4.713  12.143 -0.2508  0.0782 -3.1346
13721SOL     OW42603   7.064   7.331  11.653 -0.8392 -0.0520 -0.1326
13721SOL    HW142604   7.127   7.349  11.583 -1.7050 -0.3340 -0.9968
13721SOL    HW242605   7.119   7.310  11.729  0.1183  0.6958 -0.5870
13722SOL     OW42606   2.558   2.804   0.152 -0.3256 -0.1434  0.3868
13722SOL    HW142607   2.587   2.860   0.081 -1.4693 -0.7978 -0.6483
13722SOL    HW242608   2.634   2.795   0.209  1.0885 -0.7271 -1.4826
13723SOL     OW42609   0.957   4.816   7.156 -0.0060  0.7077  0.3562
13723SOL    HW142610   0.993   4.846   7.072  0.8621 -1.7621 -0.2677
13723SOL    HW242611   0.997   4.873   7.221  1.2370  1.1490 -0.7404
13724SOL     OW42612   5.294   5.909   8.574  0.1293  0.3681  0.3498
13724SOL    HW142613   5.274   5.859   8.494  0.1535 -1.2203  1.2881
13724SOL    HW242614   5.272   5.849   8.645  1.3031  1.2862  1.5277
13725SOL     OW42615   2.412   2.246   7.293  0.0336 -0.2685  0.0844
13725SOL    HW142616   2.432   2.323   7.347 -1.5914 -0.0761  0.4608
13725SOL    HW242617   2.355   2.192   7.348 -1.1769 -0.3522 -1.1973
13726SOL     OW42618   7.683   0.710   7.922 -0.5911  0.1465 -1.0340
13726SOL    HW142619   7.720   0.770   7.857  0.9712 -1.4496 -1.6964
13726SOL    HW242620   7.756   0.691   7.982 -1.1697 -0.7323 -0.5810
13727SOL     OW42621   1.902   1.386   4.523  0.7324  0.6212  0.2788
13727SOL    HW142622   1.844   1.454   4.558 -0.0550  0.4839 -0.7187
13727SOL    HW242623   1.888   1.389   4.429  0.5171 -1.0814  0.2323
13728SOL     OW42624   4.957   1.869   7.074 -0.2495  0.6717 -0.2064
13728SOL    HW142625   5.046   1.905   7.086  0.7644 -1.7450 -0.0065
13728SOL    HW242626   4.954   1.845   6.982 -0.5269  0.3283 -0.1076
13729SOL     OW42627   4.817   1.259   0.130  0.5465 -0.0024  0.0126
13729SOL    HW142628   4.906   1.252   0.095  0.6884  0.7663  0.2045
13729SOL    HW242629   4.778   1.330   0.080  1.3409  2.3965  2.5945
13730SOL     OW42630   3.043   3.319   8.745  0.0570  0.0514 -0.2883
13730SOL    HW142631   3.011   3.370   8.819 -1.8163 -0.3063 -0.7983
13730SOL    HW242632   3.067   3.384   8.679 -0.0683  0.3199 -0.0695
13731SOL     OW42633   6.244   7.939   5.987  0.2245 -0.0852  0.0399
13731SOL    HW142634   6.279   7.942   6.076  0.1778  0.2333  0.0474
13731SOL    HW242635   6.313   7.897   5.936  0.5792  0.4557  0.0719
13732SOL     OW42636   3.567   3.181  10.093 -0.1545 -0.1750 -0.2091
13732SOL    HW142637   3.653   3.221  10.080  1.6514 -3.6510 -0.2484
13732SOL    HW242638   3.516   3.208  10.016  1.7300  0.1389 -1.4216
13733SOL     OW42639   1.373   3.217   2.465  0.5362  0.2396 -0.3624
13733SOL    HW142640   1.325   3.258   2.537 -0.3668 -1.6988  0.1878
13733SOL    HW242641   1.396   3.130   2.497  2.9603  0.4623 -1.2610
13734SOL     OW42642   5.324   2.518  10.635 -0.6138 -0.0994 -0.2673
13734SOL    HW142643   5.413   2.486  10.653 -0.4052 -0.2330 -1.4012
13734SOL    HW242644   5.266   2.448  10.663 -0.4387  0.3771  1.3866
13735SOL     OW42645   1.156   6.203   4.123  0.2092  0.0084  0.4040
13735SOL    HW142646   1.069   6.186   4.157 -0.2047 -0.6764 -0.9205
13735SOL    HW242647   1.158   6.298   4.108 -0.0243  0.1379  1.1383
13736SOL     OW42648   7.759   7.048   2.885 -0.1036 -0.4815  0.4158
13736SOL    HW142649   7.689   7.114   2.884 -1.1700 -1.5763 -0.6354
13736SOL    HW242650   7.759   7.011   2.797  1.4015 -0.9456  0.5828
13737SOL     OW42651   2.117   0.931   1.751 -0.1496 -0.1352  0.0753
13737SOL    HW142652   2.038   0.882   1.732 -0.4605  0.1296  0.6610
13737SOL    HW242653   2.086   1.013   1.789  0.4113 -0.0647  0.3910
13738SOL     OW42654   6.295   2.151   9.611 -0.3219  0.0499  0.1237
13738SOL    HW142655   6.213   2.103   9.621 -0.1937 -0.4250 -0.9477
13738SOL    HW242656   6.320   2.175   9.700 -1.2070 -0.5003  0.5339
13739SOL     OW42657   6.632   1.824   7.326 -0.1293 -0.0241 -0.0447
13739SOL    HW142658   6.699   1.756   7.336  0.3250  0.2641 -0.9889
13739SOL    HW242659   6.637   1.874   7.408  0.2346 -0.5178  0.2395
13740SOL     OW42660   6.851   5.550   8.290 -0.0340 -0.4394 -0.1505
13740SOL    HW142661   6.851   5.580   8.199 -1.5928 -1.4341 -0.5095
13740SOL    HW242662   6.834   5.456   8.285 -0.5268 -0.4435  1.1803
13741SOL     OW42663   3.903   1.539   7.184 -0.4056 -0.3109 -0.2768
13741SOL    HW142664   3.974   1.597   7.155 -0.2619 -0.6422 -0.5986
13741SOL    HW242665   3.911   1.538   7.280 -0.8606  0.7598 -0.2079
13742SOL     OW42666   0.926   6.570   3.593 -0.4252  0.2809 -0.1016
13742SOL    HW142667   0.936   6.552   3.686  0.1110  1.8351  0.1790
13742SOL    HW242668   0.961   6.492   3.549 -1.7338 -0.9570  0.9666
13743SOL     OW42669   6.555   3.715  11.046 -0.6890 -0.3061  0.2042
13743SOL    HW142670   6.568   3.704  10.952 -0.8171 -3.0236  0.4102
13743SOL    HW242671   6.485   3.653  11.068  0.3955 -0.8927  2.3136
13744SOL     OW42672   0.925   2.401   5.791 -0.1371  0.6026  0.4191
13744SOL    HW142673   0.949   2.474   5.848  1.0955  0.2467  0.3874
13744SOL    HW242674   0.976   2.414   5.712 -0.7033  0.2684 -0.0106
13745SOL     OW42675   1.419   4.211   5.384  0.2064  0.3241 -0.0903
13745SOL    HW142676   1.326   4.190   5.378  0.3134  0.1547 -1.3613
13745SOL    HW242677   1.425   4.273   5.457 -0.9689  0.6703 -0.2704
13746SOL     OW42678   0.262   0.546   1.458  0.2647  0.3594 -0.2010
13746SOL    HW142679   0.174   0.551   1.421 -0.5290 -0.6633  1.4021
13746SOL    HW242680   0.280   0.634   1.490 -0.0442  0.6497 -0.8130
13747SOL     OW42681   7.307   1.336   9.704  0.3110  0.2061  0.1583
13747SOL    HW142682   7.213   1.342   9.726 -0.0965 -1.3522 -0.9597
13747SOL    HW242683   7.311   1.361   9.612  1.0531  0.4874  0.2651
13748SOL     OW42684   0.970   0.974   4.073 -0.0538 -0.0440 -0.3225
13748SOL    HW142685   0.881   0.941   4.087 -1.2461  2.1767 -1.8810
13748SOL    HW242686   1.018   0.950   4.152 -1.8431 -1.8957  0.2768
13749SOL     OW42687   2.935   5.098   7.964  0.0741 -0.3914  0.4066
13749SOL    HW142688   2.848   5.115   7.929 -0.4040 -2.2446  0.6112
13749SOL    HW242689   2.994   5.148   7.906 -1.0746  0.6710  0.1121
13750SOL     OW42690   3.614   6.277   0.690 -0.5423  0.1502  0.1647
13750SOL    HW142691   3.564   6.196   0.690  1.9106 -1.4934 -0.5591
13750SOL    HW242692   3.636   6.291   0.782 -1.7512  0.5519  0.4079
13751SOL     OW42693   0.744   0.266   0.739  0.3378 -0.0118  0.5480
13751SOL    HW142694   0.745   0.215   0.820  0.5007 -0.0672  0.5119
13751SOL    HW242695   0.771   0.204   0.671 -0.2256 -0.0798  0.3799
13752SOL     OW42696   2.160   3.882  10.978 -0.1212  0.2854 -0.7770
13752SOL    HW142697   2.076   3.926  10.987 -1.0544 -1.4838 -0.3799
13752SOL    HW242698   2.194   3.875  11.067  0.9558  1.8555 -1.0238
13753SOL     OW42699   0.735   2.048  11.379  0.3325  0.1931  0.5157
13753SOL    HW142700   0.740   1.952  11.378 -1.6609  0.0417  0.7246
13753SOL    HW242701   0.737   2.071  11.472 -1.8585  0.1155  0.6232
13754SOL     OW42702   2.592   6.206   9.985  0.2582 -0.2705  0.0007
13754SOL    HW142703   2.655   6.263  10.028 -0.2536 -0.0252  0.4313
13754SOL    HW242704   2.628   6.118   9.998  0.7807 -0.0945 -0.2171
13755SOL     OW42705   2.118   4.408   2.555 -0.3266 -0.4411  0.0641
13755SOL    HW142706   2.176   4.372   2.488 -0.8121 -0.8260 -0.1542
13755SOL    HW242707   2.153   4.495   2.574 -0.3741 -0.2042 -0.9164
13756SOL     OW42708   6.738   3.206   9.191  0.3088 -0.1496  0.0634
13756SOL    HW142709   6.672   3.220   9.258  0.1073  0.3449 -0.2375
13756SOL    HW242710   6.710   3.126   9.146 -2.4856  2.1948 -2.8266
13757SOL     OW42711   0.592   0.982   5.877 -0.0882  0.0449 -0.1123
13757SOL    HW142712   0.515   0.966   5.931  1.0812 -1.0029  1.3283
13757SOL    HW242713   0.609   0.898   5.834  0.8819 -0.0633  0.4603
13758SOL     OW42714   4.388   6.311   7.903  0.2261  0.0453  0.5108
13758SOL    HW142715   4.344   6.245   7.848  0.3697 -0.0236  0.4769
13758SOL    HW242716   4.412   6.381   7.842 -3.6355  2.1769  1.1106
13759SOL     OW42717   1.924   4.529   5.687 -0.3539 -0.5253 -0.2643
13759SOL    HW142718   1.833   4.555   5.677  0.0314  0.6799 -0.8884
13759SOL    HW242719   1.948   4.557   5.775 -0.4419 -0.3401 -0.2992
13760SOL     OW42720   0.153   5.708   4.977 -0.0159 -0.6251  0.2874
13760SOL    HW142721   0.175   5.615   4.970  1.5332 -0.2038 -1.0254
13760SOL    HW242722   0.208   5.751   4.911 -2.6257  0.9269 -1.0675
13761SOL     OW42723   3.153   6.660   4.371  0.0004 -0.1728 -0.7798
13761SOL    HW142724   3.178   6.574   4.403  0.1969  0.8245  2.0100
13761SOL    HW242725   3.203   6.671   4.290  0.4760 -2.3709 -0.8462
13762SOL     OW42726   7.765   0.298  10.706 -0.1469 -0.6942  0.0652
13762SOL    HW142727   7.811   0.302  10.790 -0.1328 -0.1845  0.0377
13762SOL    HW242728   7.760   0.205  10.685 -2.4701 -1.0927  1.9288
13763SOL     OW42729   4.240   6.449   7.109  0.0806  0.4279  0.1907
13763SOL    HW142730   4.149   6.479   7.103  0.3251  0.9909 -0.9755
13763SOL    HW242731   4.292   6.529   7.111  0.5875  0.1048  0.3864
13764SOL     OW42732   2.053   7.677   5.451 -0.3929  0.0263 -0.1646
13764SOL    HW142733   2.053   7.604   5.389 -2.1434 -0.4569  0.3751
13764SOL    HW242734   2.072   7.754   5.397  5.2515 -1.0226 -0.3070
13765SOL     OW42735   6.191   0.869  10.872 -0.4437 -0.5916 -0.4565
13765SOL    HW142736   6.221   0.914  10.793  1.3228 -0.4871  0.2358
13765SOL    HW242737   6.173   0.779  10.843 -0.6548 -0.3388 -1.1315
13766SOL     OW42738   6.577   3.215   7.782 -0.0313 -0.0435 -0.0359
13766SOL    HW142739   6.642   3.198   7.851  0.1509  0.6530 -0.0326
13766SOL    HW242740   6.606   3.162   7.708  0.4014  0.0766  0.0470
13767SOL     OW42741   0.491   2.158   1.475  0.2068 -0.2274  0.4118
13767SOL    HW142742   0.454   2.177   1.562  0.9579 -1.0567  0.9202
13767SOL    HW242743   0.536   2.075   1.486 -0.1369 -0.6027 -0.9208
13768SOL     OW42744   6.991   1.441   3.532 -0.5072 -0.5229 -0.2918
13768SOL    HW142745   6.999   1.432   3.627 -0.5516 -0.5256 -0.2886
13768SOL    HW242746   7.047   1.516   3.511 -1.8980  0.6150 -0.0457
13769SOL     OW42747   1.948   0.910   4.901 -0.2819  0.1054 -0.4393
13769SOL    HW142748   1.901   0.991   4.921 -0.4349  0.1124 -0.8158
13769SOL    HW242749   1.888   0.861   4.845  0.1871  0.1609 -1.0113
13770SOL     OW42750   1.390   7.772   8.211 -0.0625 -0.0328  0.0719
13770SOL    HW142751   1.381   7.732   8.298  1.6441  0.3530  0.4588
13770SOL    HW242752   1.463   7.833   8.220  1.1484 -1.0498 -1.9968
13771SOL     OW42753   0.680   0.380   4.075  0.2732 -0.3597  0.8976
13771SOL    HW142754   0.715   0.466   4.098  0.8111  0.1175 -1.3942
13771SOL    HW242755   0.756   0.323   4.070  0.4002 -0.1187 -0.8052
13772SOL     OW42756   7.016   2.085   0.094 -0.3921  0.4302 -0.1179
13772SOL    HW142757   7.074   2.037   0.036  1.6279  3.5872 -1.0008
13772SOL    HW242758   6.942   2.110   0.039  0.5073  1.6248 -0.8508
13773SOL     OW42759   0.837   0.414   5.148 -0.4071 -0.3929  0.0448
13773SOL    HW142760   0.893   0.337   5.141  0.6982  0.4918 -1.7553
13773SOL    HW242761   0.809   0.416   5.239  1.4050 -1.6340  0.6774
13774SOL     OW42762   5.444   4.239   6.754  0.5871  0.2413 -0.0352
13774SOL    HW142763   5.366   4.263   6.704  0.9569 -0.6191 -1.0527
13774SOL    HW242764   5.417   4.247   6.845 -1.7387 -3.0863 -0.2663
13775SOL     OW42765   0.722   2.445   3.238  0.2221 -0.5627  0.2197
13775SOL    HW142766   0.746   2.353   3.250 -0.2054 -0.8207 -0.8329
13775SOL    HW242767   0.785   2.478   3.174 -0.6913 -0.5941 -0.7178
13776SOL     OW42768   4.781   0.773   1.061 -0.2364  0.6332  0.2997
13776SOL    HW142769   4.850   0.785   1.126 -0.1522  0.1456  0.3051
13776SOL    HW242770   4.828   0.759   0.978 -0.3018 -0.4373  0.4275
13777SOL     OW42771   6.177   7.495  10.753 -0.1481  0.2138  0.2197
13777SOL    HW142772   6.094   7.487  10.706  0.6997 -0.0558 -1.3137
13777SOL    HW242773   6.237   7.536  10.690  1.3566 -1.2027  0.6489
13778SOL     OW42774   1.029   6.779   2.224 -0.3057  0.0705  0.3282
13778SOL    HW142775   1.022   6.766   2.319 -3.0472  0.4754  0.2405
13778SOL    HW242776   1.003   6.695   2.186  0.4213  0.0259 -0.0926
13779SOL     OW42777   6.826   5.633   2.634 -0.1737 -0.2922  0.2791
13779SOL    HW142778   6.732   5.641   2.650 -0.4928  0.2761 -1.6353
13779SOL    HW242779   6.853   5.559   2.689 -2.1707 -1.9071 -0.7510
13780SOL     OW42780   7.702   6.153   4.714  0.5026  0.1408 -0.0275
13780SOL    HW142781   7.639   6.157   4.643 -2.5852 -0.4497  2.4472
13780SOL    HW242782   7.739   6.065   4.709  0.5929  0.2302 -1.0641
13781SOL     OW42783   4.545   3.803   2.399  0.7081  0.0183  0.0114
13781SOL    HW142784   4.485   3.769   2.333  0.6909  2.8312 -1.6039
13781SOL    HW242785   4.606   3.732   2.416 -0.8969 -1.6858 -1.0357
13782SOL     OW42786   7.286   2.768   8.025  0.2289  0.3302 -0.5607
13782SOL    HW142787   7.190   2.774   8.018 -0.1162 -0.2357  2.3333
13782SOL    HW242788   7.302   2.683   8.065  2.0790 -0.0857 -2.0583
13783SOL     OW42789   7.259   4.482   8.655  0.6401 -0.3635 -0.4747
13783SOL    HW142790   7.239   4.575   8.642  0.1295 -0.5445 -1.0031
13783SOL    HW242791   7.240   4.441   8.571  0.7655 -0.9644 -0.2151
13784SOL     OW42792   2.781   4.995   8.198  0.1231 -0.3571 -0.2410
13784SOL    HW142793   2.812   4.993   8.107 -1.0419  0.6674 -0.6919
13784SOL    HW242794   2.723   5.071   8.202  1.0080  0.2907  1.6674
13785SOL     OW42795   5.890   7.493   2.994  0.1609  0.3600  0.5449
13785SOL    HW142796   5.831   7.473   2.922  0.1607  1.1189  0.3264
13785SOL    HW242797   5.929   7.409   3.017  0.1315  0.1014 -0.3098
13786SOL     OW42798   2.910   5.123  10.043  0.4997  0.8038 -0.3512
13786SOL    HW142799   2.867   5.192  10.093  0.3377  0.1041  0.4953
13786SOL    HW242800   2.950   5.066  10.109  2.8203  1.4612 -1.0990
13787SOL     OW42801   0.404   7.882   3.834 -0.0345 -0.0101 -0.6475
13787SOL    HW142802   0.342   7.813   3.815 -1.9276  0.9410  1.5192
13787SOL    HW242803   0.383   7.909   3.924  2.9855  0.9511 -0.0931
13788SOL     OW42804   7.153   1.940   3.294  0.0722 -0.2580  0.0344
13788SOL    HW142805   7.183   2.023   3.330  1.0061  0.0208 -1.2790
13788SOL    HW242806   7.164   1.877   3.366 -0.5533  0.7180  1.0071
13789SOL     OW42807   4.582   5.084   7.308  0.4400 -0.2637  0.1042
13789SOL    HW142808   4.585   5.043   7.221 -1.3929  0.3597 -0.3043
13789SOL    HW242809   4.607   5.175   7.292 -1.4094  0.2528 -0.1008
13790SOL     OW42810   5.723   2.279   9.294  0.6101  0.3504  0.1115
13790SOL    HW142811   5.761   2.252   9.378  0.2999 -1.3096 -0.2615
13790SOL    HW242812   5.782   2.348   9.263  1.9160 -0.4450  0.7268
13791SOL     OW42813   4.073   5.022   9.226  0.8035  0.0941 -0.0046
13791SOL    HW142814   4.108   4.954   9.168 -0.4185 -0.8386  0.3060
13791SOL    HW242815   4.117   5.006   9.310  0.3627 -0.4642  0.1251
13792SOL     OW42816   0.568   0.052   5.917 -0.3758  0.3191  0.6229
13792SOL    HW142817   0.631   0.118   5.947 -1.3227  0.7437  1.7730
13792SOL    HW242818   0.524   0.094   5.843 -0.8303  0.9279  1.2178
13793SOL     OW42819   3.691   1.835   2.931 -0.5635 -0.4991 -0.6381
13793SOL    HW142820   3.708   1.783   2.853  1.7382 -2.5482  1.0609
13793SOL    HW242821   3.625   1.785   2.979  1.8263 -2.2314  1.1135
13794SOL     OW42822   2.731   1.187   4.383  0.7847  0.2633 -0.3304
13794SOL    HW142823   2.779   1.270   4.384 -0.0040  0.7437  1.0257
13794SOL    HW242824   2.759   1.144   4.303  0.2352  2.4134 -1.7717
13795SOL     OW42825   3.423   4.167   9.728  1.0111 -0.1410 -0.5576
13795SOL    HW142826   3.401   4.258   9.707 -2.2358 -0.7515 -0.3079
13795SOL    HW242827   3.413   4.120   9.645 -2.2693 -0.9670  0.1573
13796SOL     OW42828   5.172   2.129   8.381 -0.0751 -0.1938  0.1854
13796SOL    HW142829   5.095   2.183   8.361  0.0080 -0.0257  0.3081
13796SOL    HW242830   5.136   2.046   8.412 -0.3681  1.3074  4.5308
13797SOL     OW42831   1.646   6.621   4.785 -0.0434 -0.9720  0.1336
13797SOL    HW142832   1.680   6.605   4.697 -0.1542 -1.6411  0.2080
13797SOL    HW242833   1.704   6.569   4.842  0.8507  0.4696  0.5990
13798SOL     OW42834   5.804   7.380   6.971 -0.2954 -0.0190 -0.3987
13798SOL    HW142835   5.854   7.341   7.042 -1.7173 -0.8031  0.2083
13798SOL    HW242836   5.715   7.347   6.982 -1.0103  1.4349 -1.3458
13799SOL     OW42837   2.488   2.665   1.018 -0.6302 -0.1312 -0.4556
13799SOL    HW142838   2.548   2.700   1.084 -0.5492  2.2437 -1.7144
13799SOL    HW242839   2.411   2.638   1.068 -0.4435  1.3091  0.6641
13800SOL     OW42840   2.292   3.872   9.630  0.7289 -0.0772  0.0042
13800SOL    HW142841   2.319   3.957   9.665 -0.0746  0.5548 -0.8728
13800SOL    HW242842   2.361   3.849   9.567  1.7389 -0.8236  1.3232
13801SOL     OW42843   5.025   4.199   5.149 -0.5294  0.5779  0.3125
13801SOL    HW142844   5.079   4.273   5.174 -0.0118  0.0753  0.7068
13801SOL    HW242845   4.937   4.235   5.139 -0.1978  1.3280  0.0422
13802SOL     OW42846   7.861   6.906   9.937  0.2679  0.3944 -0.0289
13802SOL    HW142847   7.858   6.815   9.969 -2.0888  0.8600  1.3220
13802SOL    HW242848   7.775   6.941   9.958 -0.2239  1.9046 -3.7698
13803SOL     OW42849   4.866   0.616   2.995 -0.0067  0.0419 -0.0287
13803SOL    HW142850   4.923   0.539   2.995  1.5279  1.1207 -0.6438
13803SOL    HW242851   4.916   0.682   2.948 -1.2691  1.4465  0.5300
13804SOL     OW42852   3.770   5.594   3.425 -0.4268 -0.3121  0.0973
13804SOL    HW142853   3.801   5.638   3.346 -1.0770 -0.7096 -0.3870
13804SOL    HW242854   3.829   5.519   3.435 -0.1364 -0.0768  0.1857
13805SOL     OW42855   4.190   7.839   1.323  0.6494  0.7093 -0.0426
13805SOL    HW142856   4.222   7.752   1.346  1.1146  0.7288 -0.5719
13805SOL    HW242857   4.234   7.898   1.384 -0.0752  0.5273  0.6642
13806SOL     OW42858   7.691   7.666   0.234  0.1063 -0.5938 -0.1767
13806SOL    HW142859   7.752   7.734   0.203  1.2534 -0.8350  1.4235
13806SOL    HW242860   7.642   7.641   0.156  1.3024  0.3997 -1.3045
13807SOL     OW42861   2.416   5.117   5.746 -0.3311  0.0879  0.1113
13807SOL    HW142862   2.475   5.149   5.814  0.4610 -0.3882 -0.3329
13807SOL    HW242863   2.466   5.049   5.701 -1.3704 -0.6158 -0.0235
13808SOL     OW42864   5.101   4.662   7.858  0.6727 -0.4473  0.4286
13808SOL    HW142865   5.153   4.627   7.785 -1.6633 -1.8821 -0.6544
13808SOL    HW242866   5.080   4.586   7.912 -1.2615 -0.1379  0.1799
13809SOL     OW42867   0.813   0.195   0.267 -0.1851 -0.0399 -0.3258
13809SOL    HW142868   0.847   0.155   0.187 -1.4532 -2.6007  0.3148
13809SOL    HW242869   0.719   0.201   0.253 -0.2129  1.2633  0.2740
13810SOL     OW42870   3.616   5.114   6.619  0.0066  0.3765 -0.1997
13810SOL    HW142871   3.673   5.167   6.564  0.7402 -0.5990 -0.4128
13810SOL    HW242872   3.577   5.051   6.559 -2.6747  2.0685 -0.3838
13811SOL     OW42873   1.886   5.217   3.864  0.8415 -0.1555 -0.1968
13811SOL    HW142874   1.944   5.152   3.903  0.8199  0.1191  0.3032
13811SOL    HW242875   1.902   5.297   3.914 -1.6973 -0.6528  1.5883
13812SOL     OW42876   4.270   7.694   9.449 -0.4369  0.4023 -0.2195
13812SOL    HW142877   4.207   7.650   9.506 -0.0538 -2.0429 -1.5402
13812SOL    HW242878   4.355   7.673   9.487 -0.2996  1.2456 -0.0567
13813SOL     OW42879   2.167   0.947   4.724 -0.2984 -0.4406  0.3444
13813SOL    HW142880   2.111   0.906   4.790 -1.7762  0.2043 -0.4567
13813SOL    HW242881   2.105   0.984   4.660  1.0476  0.5024 -0.4557
13814SOL     OW42882   0.472   1.983   4.427 -0.0751 -0.1607  0.2598
13814SOL    HW142883   0.525   2.059   4.451 -1.5202  1.0527 -0.1770
13814SOL    HW242884   0.454   1.939   4.510  0.6635  0.0483  0.5381
13815SOL     OW42885   7.575   2.829   6.552 -0.0401  0.1635  0.3376
13815SOL    HW142886   7.544   2.748   6.592 -0.8523  0.6172  0.6557
13815SOL    HW242887   7.603   2.804   6.464 -0.3522 -0.4432  0.4087
13816SOL     OW42888   5.480   5.252   2.881  0.5318 -0.4366  0.5273
13816SOL    HW142889   5.420   5.187   2.846  1.8390 -0.9239 -0.9466
13816SOL    HW242890   5.447   5.272   2.968 -1.1600 -1.4190  0.1422
13817SOL     OW42891   5.349   4.849   3.037  0.0785 -0.0065  0.4955
13817SOL    HW142892   5.290   4.920   3.064  0.4979 -0.1177  1.7499
13817SOL    HW242893   5.436   4.880   3.061  0.3522 -0.6200  0.3100
13818SOL     OW42894   5.818   0.198   4.810 -0.0934 -0.0934  0.4565
13818SOL    HW142895   5.804   0.291   4.793  1.1692  0.2237  0.9758
13818SOL    HW242896   5.825   0.159   4.723 -0.7188  0.2825  0.2336
13819SOL     OW42897   2.023   5.558   4.291  0.2986  0.1968 -0.1081
13819SOL    HW142898   2.017   5.621   4.218  1.5786 -0.4975 -0.8400
13819SOL    HW242899   2.019   5.613   4.369  0.2660  1.0938 -0.7143
13820SOL     OW42900   5.838   2.744   2.599  0.6093 -0.0060 -0.3230
13820SOL    HW142901   5.864   2.806   2.667  0.9957 -2.1543  1.5920
13820SOL    HW242902   5.889   2.665   2.617 -2.2533 -2.0553 -0.5691
13821SOL     OW42903   7.790   4.218  10.711 -0.3342  0.1309 -0.0228
13821SOL    HW142904   7.770   4.302  10.753 -2.3310 -0.6213  0.6381
13821SOL    HW242905   7.814   4.160  10.784 -2.0921 -0.7023 -0.0584
13822SOL     OW42906   4.346   7.624   1.391 -0.0156 -0.2112  0.0753
13822SOL    HW142907   4.418   7.581   1.344  2.2648  1.1044  2.1251
13822SOL    HW242908   4.308   7.554   1.445  0.0834 -0.8099 -0.6136
13823SOL     OW42909   5.673   7.385   0.897 -0.1893 -0.2146  0.5371
13823SOL    HW142910   5.696   7.416   0.985 -0.1327 -1.1834  0.8764
13823SOL    HW242911   5.757   7.376   0.852  0.0117 -1.8958  1.1483
13824SOL     OW42912   4.497   5.196  12.133  0.6817  0.5924 -0.3574
13824SOL    HW142913   4.478   5.286  12.110 -1.0880  0.1629 -0.7309
13824SOL    HW242914   4.417   5.148  12.112  1.4676 -1.0156  0.1183
13825SOL     OW42915   7.825   3.982  11.679  0.2458  0.2437 -0.5589
13825SOL    HW142916   7.891   3.932  11.630  0.9121  1.4628 -0.9460
13825SOL    HW242917   7.795   3.922  11.747  1.4272 -0.4963 -0.6635
13826SOL     OW42918   4.818   0.195   8.350  0.1925 -0.1228  0.4838
13826SOL    HW142919   4.914   0.194   8.340  0.2540  1.0472  0.8134
13826SOL    HW242920   4.803   0.172   8.441  0.1693 -0.0870  0.4892
13827SOL     OW42921   6.079   5.568   0.977 -0.1566 -0.6607 -0.1795
13827SOL    HW142922   6.026   5.519   0.915 -1.2239 -1.7926  1.5314
13827SOL    HW242923   6.104   5.504   1.044 -0.8028  0.8845  1.6458
13828SOL     OW42924   2.737   1.961   3.347  0.0827 -0.2151  0.3512
13828SOL    HW142925   2.789   2.008   3.283 -1.0738  0.8638  0.1550
13828SOL    HW242926   2.788   1.883   3.367  0.7056 -0.3259 -1.4850
13829SOL     OW42927   5.221   1.542   2.190  0.6331  0.2510  0.0585
13829SOL    HW142928   5.204   1.525   2.283 -0.3551  0.2638 -0.1110
13829SOL    HW242929   5.134   1.548   2.150  1.0392 -1.1354 -1.1327
13830SOL     OW42930   0.268   5.590  11.585  0.0101 -0.7039  0.0620
13830SOL    HW142931   0.240   5.680  11.598  1.0363 -0.5570  1.4225
13830SOL    HW242932   0.227   5.564  11.502 -1.4290  0.5340  0.3484
13831SOL     OW42933   1.444   5.879   9.372  0.4479  0.1902 -0.1174
13831SOL    HW142934   1.530   5.876   9.329  0.4106 -1.7630 -0.1356
13831SOL    HW242935   1.464   5.872   9.465  0.3250 -0.5976 -0.1389
13832SOL     OW42936   2.106   5.845   7.985 -0.2065  0.1774 -0.4831
13832SOL    HW142937   2.188   5.886   8.014  0.1567  1.1723 -2.7422
13832SOL    HW242938   2.118   5.752   8.002  1.0699  0.4014 -0.0469
13833SOL     OW42939   5.374   1.484   4.078  0.0986  0.0062 -0.2492
13833SOL    HW142940   5.348   1.392   4.085 -0.1413 -0.0002 -1.1118
13833SOL    HW242941   5.297   1.533   4.106  0.7763 -0.0428  1.8928
13834SOL     OW42942   1.302   3.634   2.918  0.1723 -0.1289 -0.2308
13834SOL    HW142943   1.397   3.644   2.922  0.4934 -2.7089  1.1756
13834SOL    HW242944   1.278   3.595   3.002 -2.6656  3.3353  0.8305
13835SOL     OW42945   6.542   4.683   0.134 -0.6407  0.6353  0.1452
13835SOL    HW142946   6.520   4.715   0.221 -1.0790  1.0983 -0.1284
13835SOL    HW242947   6.478   4.613   0.117  0.5519 -0.6994  0.8953
13836SOL     OW42948   6.516   2.597   1.857  0.1205  0.0458 -0.7216
13836SOL    HW142949   6.466   2.568   1.780 -0.4196  0.5480 -0.5613
13836SOL    HW242950   6.607   2.578   1.834 -0.1915 -1.8814 -0.6014
13837SOL     OW42951   2.379   2.984   7.376  0.1863 -0.0949 -0.2346
13837SOL    HW142952   2.366   2.901   7.331 -2.1511  0.9811 -1.7953
13837SOL    HW242953   2.314   2.983   7.447  1.3730 -0.2845  0.8871
13838SOL     OW42954   2.834   2.625   0.699 -0.1882  0.1246 -0.3662
13838SOL    HW142955   2.907   2.592   0.752 -0.8992 -1.1215 -0.1326
13838SOL    HW242956   2.760   2.570   0.723 -1.1464  1.1629 -0.8441
13839SOL     OW42957   3.770   1.158   6.575  0.3808 -0.2010  0.2261
13839SOL    HW142958   3.698   1.187   6.631 -0.1817  0.9444 -1.0384
13839SOL    HW242959   3.804   1.239   6.536  2.6809 -0.6377  1.1303
13840SOL     OW42960   4.983   6.112   6.585  0.2741  0.0414  0.4956
13840SOL    HW142961   4.975   6.052   6.511  0.2933 -0.2420  0.7196
13840SOL    HW242962   4.942   6.193   6.555  1.1388  0.2458 -0.1762
13841SOL     OW42963   2.220   2.882   1.243  0.3440  0.0214  0.2913
13841SOL    HW142964   2.203   2.788   1.233  0.6503  0.0327 -0.3554
13841SOL    HW242965   2.203   2.899   1.336  1.7002 -0.9830  0.7655
13842SOL     OW42966   7.924   7.347   8.404  0.3860  0.0421 -0.0802
13842SOL    HW142967   7.855   7.287   8.378 -0.3987  0.9975 -0.2915
13842SOL    HW242968   8.000   7.292   8.419 -0.5562 -1.1042  0.6664
13843SOL     OW42969   4.848   2.467   4.050 -0.1684 -0.1379  0.0222
13843SOL    HW142970   4.830   2.542   3.993 -1.6134 -1.5797 -1.5338
13843SOL    HW242971   4.771   2.460   4.106 -0.2202 -0.6906 -0.1159
13844SOL     OW42972   2.682   1.811   3.762  0.6948 -0.2588 -0.0618
13844SOL    HW142973   2.766   1.769   3.748  1.5857  0.7523  1.9665
13844SOL    HW242974   2.689   1.895   3.716  1.1718  0.2175  0.8464
13845SOL     OW42975   1.620   1.589   4.264  0.4695  0.6105 -0.2927
13845SOL    HW142976   1.550   1.649   4.237 -0.5127 -0.6583 -0.6755
13845SOL    HW242977   1.652   1.625   4.347 -1.1449  0.8315  0.2679
13846SOL     OW42978   7.013   1.011   7.282  0.0317 -0.4896 -0.3735
13846SOL    HW142979   7.088   1.065   7.309  0.1907 -0.4694 -0.8428
13846SOL    HW242980   7.002   0.948   7.353  0.4788 -0.4751 -0.2884
13847SOL     OW42981   4.369   3.088   6.448 -0.4548  0.4995  0.0958
13847SOL    HW142982   4.440   3.143   6.415 -0.9094  0.6211 -0.6942
13847SOL    HW242983   4.350   3.027   6.377 -0.3273 -0.3422  0.7532
13848SOL     OW42984   4.838   5.652  11.308  0.1438 -0.0631  0.2999
13848SOL    HW142985   4.855   5.724  11.247  1.0630  0.1100  0.7424
13848SOL    HW242986   4.748   5.625  11.289  0.0269  0.7453 -0.3425
13849SOL     OW42987   0.744   7.613   5.616  0.2412 -0.6398 -0.3444
13849SOL    HW142988   0.701   7.557   5.551  2.8819 -1.2767 -1.6824
13849SOL    HW242989   0.717   7.577   5.700 -1.9085 -0.8782 -1.0754
13850SOL     OW42990   7.937   5.796   0.487 -0.2977 -0.3763  0.3400
13850SOL    HW142991   7.938   5.840   0.572 -2.1984  2.5809 -1.0225
13850SOL    HW242992   7.994   5.848   0.431 -1.6062 -0.3250 -1.0162
13851SOL     OW42993   4.218   1.703   7.474  0.0975 -0.2185  0.0613
13851SOL    HW142994   4.261   1.768   7.529 -1.0416  0.3570  0.3038
13851SOL    HW242995   4.283   1.681   7.407  2.1300 -2.0890  2.4352
13852SOL     OW42996   4.785   6.841   1.728  1.0560  0.3817  0.5446
13852SOL    HW142997   4.727   6.915   1.748 -1.3431 -0.9554 -0.9719
13852SOL    HW242998   4.762   6.816   1.639  2.8840 -1.2555  0.4663
13853SOL     OW42999   6.369   7.873   0.044 -0.0131 -0.3810  0.7804
13853SOL    HW143000   6.365   7.820   0.123 -0.0994 -0.7108  0.5560
13853SOL    HW243001   6.355   7.963   0.075 -0.5704 -0.5613  1.0749
13854SOL     OW43002   6.206   3.459   0.331  0.1701  0.5603 -0.4549
13854SOL    HW143003   6.259   3.526   0.289 -1.0848  0.2620 -2.7139
13854SOL    HW243004   6.138   3.507   0.378  2.1494  0.9310  2.2250
13855SOL     OW43005   7.785   0.292   4.956 -0.7425 -0.0775  0.0707
13855SOL    HW143006   7.842   0.219   4.981 -1.8958 -1.2426 -0.5937
13855SOL    HW243007   7.701   0.251   4.934 -1.4952  1.4751 -0.1159
13856SOL     OW43008   4.380   1.603   1.075 -0.3323  0.1688  0.1626
13856SOL    HW143009   4.285   1.611   1.068 -0.3706  0.6408  1.0125
13856SOL    HW243010   4.394   1.555   1.157  0.1521 -0.6654 -0.3865
13857SOL     OW43011   3.530   5.906   3.725 -0.4704  0.0978 -0.5408
13857SOL    HW143012   3.560   5.843   3.659  1.0170 -0.0781  0.2655
13857SOL    HW243013   3.486   5.975   3.674  0.9782  0.1605 -1.7705
13858SOL     OW43014   3.785   2.692   9.494 -0.0057 -0.2092 -0.2259
13858SOL    HW143015   3.741   2.777   9.499 -1.4840 -1.0311  1.7643
13858SOL    HW243016   3.740   2.646   9.422  0.1123  0.2941 -0.6299
13859SOL     OW43017   2.827   2.146   5.491 -0.2328  0.6651 -0.0746
13859SOL    HW143018   2.757   2.194   5.536 -0.0249  0.3026  0.6487
13859SOL    HW243019   2.806   2.155   5.398 -1.5349  0.1284  0.1374
13860SOL     OW43020   4.763   7.902   4.549 -0.6318  0.3950 -0.2020
13860SOL    HW143021   4.759   7.908   4.645  0.3564 -1.0516 -0.0503
13860SOL    HW243022   4.836   7.842   4.531 -2.2506 -1.2168 -1.7916
13861SOL     OW43023   4.047   1.130   3.919 -0.3034 -0.0949  0.3120
13861SOL    HW143024   4.117   1.185   3.884  0.1921 -0.1827  1.1264
13861SOL    HW243025   4.080   1.101   4.004 -0.1661 -2.3779 -0.4417
13862SOL     OW43026   1.345   5.642  11.026  0.6084  0.4166  0.2880
13862SOL    HW143027   1.309   5.612  11.110  0.8344  1.4348  0.7645
13862SOL    HW243028   1.277   5.698  10.990  0.9923  0.9292  0.3562
13863SOL     OW43029   2.198   1.263   4.270 -0.0445 -0.2047 -0.1206
13863SOL    HW143030   2.242   1.239   4.352  0.3588  0.2590 -0.1953
13863SOL    HW243031   2.264   1.246   4.202 -0.9243 -2.1955 -0.5562
13864SOL     OW43032   2.132   5.944  11.059 -0.3092 -0.1516 -0.0628
13864SOL    HW143033   2.054   5.970  11.108 -0.8945 -2.0582  0.1209
13864SOL    HW243034   2.167   5.869  11.107  0.3178 -0.7452 -1.3725
13865SOL     OW43035   2.196   4.405  10.516  0.0072  0.1127  0.5427
13865SOL    HW143036   2.191   4.443  10.603 -0.8098  1.4920 -0.0687
13865SOL    HW243037   2.131   4.335  10.515  0.2408 -0.1123  1.1322
13866SOL     OW43038   3.577   7.778   7.136  0.0577 -0.4171  0.4234
13866SOL    HW143039   3.636   7.725   7.188 -0.0284 -0.6725  0.2624
13866SOL    HW243040   3.499   7.790   7.191  0.2184 -0.1636  0.5960
13867SOL     OW43041   2.748   6.696   6.003  0.6350  0.2865  0.3063
13867SOL    HW143042   2.746   6.602   5.988 -1.7245  0.1260  1.1983
13867SOL    HW243043   2.723   6.734   5.919 -0.0610  0.0030  0.3728
13868SOL     OW43044   2.126   3.918  11.979  0.3569 -0.7909 -0.1295
13868SOL    HW143045   2.134   3.964  12.062 -2.6121  1.1294 -0.7348
13868SOL    HW243046   2.122   3.826  12.003 -0.2321 -0.3014  1.8483
13869SOL     OW43047   7.225   7.068   2.698  0.3016  0.3229  0.2863
13869SOL    HW143048   7.261   7.103   2.780  1.2711 -0.1838  0.0960
13869SOL    HW243049   7.135   7.045   2.719  0.6232 -0.0581  1.2866
13870SOL     OW43050   0.528   2.486   5.516 -0.1895  0.1603  0.3857
13870SOL    HW143051   0.560   2.403   5.551 -1.1063 -0.0527  0.7649
13870SOL    HW243052   0.606   2.534   5.491  0.3611 -0.7343  0.3672
13871SOL     OW43053   2.359   6.452   9.367  0.6688 -0.5395  0.9547
13871SOL    HW143054   2.361   6.525   9.305 -0.2071 -1.4502 -0.1982
13871SOL    HW243055   2.444   6.409   9.355  0.3355 -0.9674  0.0421
13872SOL     OW43056   2.420   7.649   3.470  0.3407  0.0177 -0.2623
13872SOL    HW143057   2.433   7.623   3.379 -0.7773  0.8041 -0.6699
13872SOL    HW243058   2.393   7.569   3.514 -0.3399 -0.1250 -0.9051
13873SOL     OW43059   0.618   6.556  11.507  0.1854 -0.0038  0.4235
13873SOL    HW143060   0.618   6.651  11.515 -0.4871 -0.0019  0.3886
13873SOL    HW243061   0.526   6.532  11.500  0.4161 -0.5224 -1.2102
13874SOL     OW43062   2.719   7.195   5.878 -0.0741  0.0345 -0.8491
13874SOL    HW143063   2.774   7.171   5.804  1.1502 -1.3526  0.4289
13874SOL    HW243064   2.712   7.290   5.874  5.8344  0.9430  1.0327
13875SOL     OW43065   2.466   0.342  10.652  0.5548  0.3556 -0.5975
13875SOL    HW143066   2.502   0.410  10.709  0.3491 -1.8046  2.4155
13875SOL    HW243067   2.409   0.389  10.591  1.7850  2.9892  0.1327
13876SOL     OW43068   4.242   2.522  11.227  0.0770  0.2849  0.4161
13876SOL    HW143069   4.202   2.444  11.188 -1.6711  0.8065  1.0521
13876SOL    HW243070   4.217   2.594  11.168  1.6242  0.3978 -0.1374
13877SOL     OW43071   6.057   2.890   1.796  0.4054  0.6652  0.1104
13877SOL    HW143072   6.148   2.860   1.793 -0.2432 -1.5783  0.8784
13877SOL    HW243073   6.016   2.835   1.862 -2.0034  0.2301 -1.6291
13878SOL     OW43074   1.776   7.027   6.895  0.0661  0.3599  0.6006
13878SOL    HW143075   1.707   7.028   6.827  0.2031 -0.8685  0.4257
13878SOL    HW243076   1.826   7.107   6.879  0.9548 -0.5742 -1.6705
13879SOL     OW43077   0.098   6.818   5.058  0.7241  0.1219 -0.2551
13879SOL    HW143078   0.133   6.788   5.142 -0.5718 -0.2303  0.1847
13879SOL    HW243079   0.017   6.864   5.081 -0.1634 -0.8155 -1.3572
13880SOL     OW43080   7.467   4.929   9.174  0.0126 -0.8404 -0.3068
13880SOL    HW143081   7.532   4.867   9.208  0.3794  0.4264  1.4046
13880SOL    HW243082   7.516   5.009   9.156 -1.0954  0.3226  1.5288
13881SOL     OW43083   3.262   5.737  11.329 -0.1751  0.2391 -0.1550
13881SOL    HW143084   3.316   5.741  11.408  0.2062 -1.2998 -0.2950
13881SOL    HW243085   3.316   5.690  11.266  0.2223  2.9106 -1.9722
13882SOL     OW43086   0.515   0.964   1.530 -0.1638 -0.8455  0.5815
13882SOL    HW143087   0.609   0.950   1.521  0.4183  2.0623  1.3628
13882SOL    HW243088   0.506   1.053   1.563 -3.2051 -1.1397  0.8731
13883SOL     OW43089   1.748   6.242   8.258 -0.1102  0.0733  0.1577
13883SOL    HW143090   1.759   6.277   8.169  1.6271  1.5448  0.8835
13883SOL    HW243091   1.653   6.243   8.272 -0.3964  0.2281 -1.5185
13884SOL     OW43092   2.090   1.391   9.658  0.5488  0.4922 -0.6609
13884SOL    HW143093   2.062   1.381   9.749  1.8882  2.4669  0.0158
13884SOL    HW243094   2.008   1.406   9.610 -0.2822 -1.5094 -0.0158
13885SOL     OW43095   2.420   0.178  10.851  0.4094  0.6595  0.4030
13885SOL    HW143096   2.346   0.226  10.889  1.2033  1.6949  0.6719
13885SOL    HW243097   2.442   0.226  10.772  0.1401 -0.2587 -0.2469
13886SOL     OW43098   2.314   2.454   0.680  0.4783 -0.4658 -0.2424
13886SOL    HW143099   2.338   2.413   0.597 -2.3678 -0.2409 -1.2845
13886SOL    HW243100   2.307   2.382   0.742 -0.0180 -0.9896 -0.9003
13887SOL     OW43101   1.015   7.825   7.382 -0.0189  0.4990  0.5210
13887SOL    HW143102   0.955   7.895   7.407 -0.8239 -0.5444  1.5938
13887SOL    HW243103   0.972   7.745   7.411  1.5839 -0.3316  0.7025
13888SOL     OW43104   7.233   4.402   1.284  0.5322 -0.5201 -0.4970
13888SOL    HW143105   7.164   4.336   1.275 -0.3456 -0.1624  2.5461
13888SOL    HW243106   7.193   4.483   1.249  0.3136 -0.8202 -0.9547
13889SOL     OW43107   2.576   0.871   7.792 -0.0672  0.2035  0.1088
13889SOL    HW143108   2.514   0.928   7.837  0.6822  0.2451  1.1183
13889SOL    HW243109   2.634   0.840   7.861  0.8999 -0.0121 -0.7863
13890SOL     OW43110   0.809   4.329   3.715 -0.4912  0.1620 -0.4465
13890SOL    HW143111   0.771   4.243   3.700 -1.2958  0.5397 -0.6042
13890SOL    HW243112   0.859   4.319   3.796  0.1915 -0.6924 -0.9524
13891SOL     OW43113   7.154   1.189   6.318 -0.5861 -0.1509  0.6084
13891SOL    HW143114   7.191   1.191   6.230 -0.8955 -0.3294  0.4757
13891SOL    HW243115   7.068   1.148   6.308 -1.2239  1.0940  0.7742
13892SOL     OW43116   3.929   1.548   2.927 -0.3163  0.1292 -0.5759
13892SOL    HW143117   3.914   1.599   2.848  2.4558 -0.1327 -1.3912
13892SOL    HW243118   3.933   1.612   2.997  3.0802  1.2107 -1.5733
13893SOL     OW43119   7.675   3.615   3.542 -0.2209 -0.2727  0.1185
13893SOL    HW143120   7.587   3.615   3.502  0.2841 -0.3647 -1.0289
13893SOL    HW243121   7.735   3.603   3.468  0.7101 -1.4466  1.0338
13894SOL     OW43122   0.564   6.980  11.001 -0.6466 -0.2925  0.2089
13894SOL    HW143123   0.627   6.955  11.069  0.5576  4.8933  1.4708
13894SOL    HW243124   0.479   6.980  11.046 -0.2920  0.3520  0.8946
13895SOL     OW43125   5.075   3.408   9.511  0.4196 -0.0705  0.2902
13895SOL    HW143126   5.099   3.500   9.521 -0.4575  0.2267 -0.1980
13895SOL    HW243127   4.981   3.406   9.532  0.3597 -0.7987 -0.0322
13896SOL     OW43128   4.883   4.927   7.365  0.4608  0.3244 -0.7049
13896SOL    HW143129   4.812   4.884   7.319  0.4246  0.5263 -0.8408
13896SOL    HW243130   4.844   5.007   7.400 -0.5174 -1.5092  2.8378
13897SOL     OW43131   6.059   4.103   9.696  0.2598  0.2176  0.4562
13897SOL    HW143132   6.121   4.144   9.636 -0.2511 -0.0282 -0.2484
13897SOL    HW243133   5.975   4.143   9.676 -0.0865 -0.5331  0.3668
13898SOL     OW43134   5.772   3.906   5.604  0.5986  0.2429  0.3763
13898SOL    HW143135   5.678   3.902   5.620  0.7309  1.0677  1.4885
13898SOL    HW243136   5.807   3.827   5.648  0.4809  0.2151  0.4203
13899SOL     OW43137   6.917   3.295   5.918  0.6966 -0.4605  0.4798
13899SOL    HW143138   6.864   3.359   5.871  2.0309 -0.2469 -0.8224
13899SOL    HW243139   6.857   3.223   5.938 -0.5268  0.6202  0.8372
13900SOL     OW43140   5.513   4.226   8.530 -0.1408 -0.3266 -0.1617
13900SOL    HW143141   5.418   4.215   8.534 -0.1666 -0.2587 -0.5448
13900SOL    HW243142   5.533   4.223   8.437  0.1612  0.2633 -0.1202
13901SOL     OW43143   6.506   7.710  12.315  0.8313 -0.0290 -0.0939
13901SOL    HW143144   6.546   7.783  12.268 -0.1334  0.4548 -0.2009
13901SOL    HW243145   6.447   7.752  12.378 -0.8563 -0.7060 -1.1413
13902SOL     OW43146   0.546   6.986   0.090 -0.0208 -0.3817 -0.1767
13902SOL    HW143147   0.481   6.933   0.136 -0.5617 -1.1460 -1.7707
13902SOL    HW243148   0.497   7.031   0.021  0.9426 -0.0692 -0.6750
13903SOL     OW43149   0.454   2.071   8.503  0.1393  0.6459  0.0121
13903SOL    HW143150   0.499   2.082   8.419 -0.5065 -0.8622 -0.5655
13903SOL    HW243151   0.525   2.060   8.567  0.6628 -1.2464 -0.8195
13904SOL     OW43152   7.492   5.617   4.018 -0.3763 -0.0596  0.1433
13904SOL    HW143153   7.508   5.524   4.034  2.1495  0.2396 -0.2551
13904SOL    HW243154   7.452   5.649   4.099  0.8574 -1.0651  1.1976
13905SOL     OW43155   0.944   2.571   9.484 -0.1068 -0.1820  0.4125
13905SOL    HW143156   0.871   2.511   9.495 -0.6770  0.0814 -1.5846
13905SOL    HW243157   1.022   2.515   9.487 -0.5449 -0.8101  0.1146
13906SOL     OW43158   5.391   2.743   6.426 -0.3214 -0.2603  0.3390
13906SOL    HW143159   5.412   2.807   6.358  0.5903 -0.3763  0.4977
13906SOL    HW243160   5.308   2.704   6.398  0.1538 -0.4657 -0.8122
13907SOL     OW43161   2.463   0.086   8.972 -0.2960  0.0340  0.6345
13907SOL    HW143162   2.546   0.040   8.988  0.8404 -0.1783 -4.1818
13907SOL    HW243163   2.483   0.178   8.988 -0.2489 -0.3050  2.7982
13908SOL     OW43164   7.518   3.752   5.006  0.8051  0.2594 -0.5346
13908SOL    HW143165   7.446   3.742   5.068  1.1681 -1.0352 -0.2982
13908SOL    HW243166   7.596   3.761   5.061  1.2192 -1.5861 -0.7635
13909SOL     OW43167   1.716   6.382  11.108  0.3369 -0.3363  0.4789
13909SOL    HW143168   1.809   6.374  11.126  0.2079 -0.3253  1.1595
13909SOL    HW243169   1.711   6.450  11.041  0.6767  1.2690  1.9998
13910SOL     OW43170   1.912   7.952  12.112  0.9590 -0.1958 -0.4704
13910SOL    HW143171   1.843   7.914  12.166  1.4526  2.0218  1.9718
13910SOL    HW243172   1.993   7.931  12.158  1.4064  1.7135 -0.2800
13911SOL     OW43173   5.802   0.211  10.383  0.2176 -0.1659  0.0955
13911SOL    HW143174   5.750   0.210  10.302 -0.8901 -1.7369  0.7915
13911SOL    HW243175   5.786   0.298  10.420 -1.1693 -0.2857 -0.1863
13912SOL     OW43176   4.424   0.287  11.033 -0.3660  0.7384  0.2795
13912SOL    HW143177   4.510   0.248  11.017 -1.0579 -1.4957  1.5725
13912SOL    HW243178   4.384   0.294  10.946  0.3110 -0.1747 -0.1195
13913SOL     OW43179   3.396   1.711   9.353 -0.1970  0.0057  0.2781
13913SOL    HW143180   3.440   1.628   9.334 -0.4532 -0.4390  1.5634
13913SOL    HW243181   3.348   1.731   9.273 -0.6805 -1.4440  0.1764
13914SOL     OW43182   5.607   3.323   1.089  0.1195  0.1235 -0.0363
13914SOL    HW143183   5.518   3.289   1.099  0.2733 -0.4801 -0.6590
13914SOL    HW243184   5.636   3.291   1.004  1.0371  0.0736  0.2788
13915SOL     OW43185   0.524   1.961   0.678 -0.4237 -0.4295 -0.0413
13915SOL    HW143186   0.593   1.973   0.744 -0.2476  0.2452 -0.3306
13915SOL    HW243187   0.553   2.016   0.605 -1.5151  0.2605  0.0234
13916SOL     OW43188   3.582   4.652   2.304 -0.2059 -0.6468  0.3280
13916SOL    HW143189   3.647   4.599   2.350  0.7218 -0.4908 -0.7777
13916SOL    HW243190   3.593   4.740   2.341 -2.0313 -1.2190  2.4686
13917SOL     OW43191   5.547   3.568   7.904 -0.4770 -0.5525 -0.0622
13917SOL    HW143192   5.501   3.652   7.897 -0.3326 -0.4603  0.0687
13917SOL    HW243193   5.566   3.560   7.998  0.4002 -0.2506 -0.1987
13918SOL     OW43194   6.776   4.681   8.144  0.1647  0.5228 -0.4576
13918SOL    HW143195   6.703   4.742   8.138  0.6882  1.1978 -0.1507
13918SOL    HW243196   6.853   4.732   8.118  0.4860 -0.2693 -1.1226
13919SOL     OW43197   1.544   6.774   8.529 -0.5736  0.3468 -0.6211
13919SOL    HW143198   1.548   6.712   8.603  0.6330 -0.7661 -1.5757
13919SOL    HW243199   1.601   6.736   8.463 -2.0097  1.0751 -2.3458
13920SOL     OW43200   6.624   5.286  10.623  0.7555 -0.6333 -0.2971
13920SOL    HW143201   6.568   5.358  10.592  2.2595 -0.5669 -3.1693
13920SOL    HW243202   6.579   5.207  10.594  0.8955 -0.6833 -0.3795
13921SOL     OW43203   6.736   7.529   8.018 -0.1612 -0.4639 -0.1778
13921SOL    HW143204   6.668   7.474   7.981 -0.2398 -1.1198  0.8808
13921SOL    HW243205   6.700   7.617   8.015 -0.6832 -0.6825 -0.4521
13922SOL     OW43206   6.855   6.417  11.285 -0.0737 -0.3515 -0.3263
13922SOL    HW143207   6.935   6.456  11.319  0.2806  0.6066 -2.1245
13922SOL    HW243208   6.882   6.374  11.204 -1.2297 -0.7114 -0.5403
13923SOL     OW43209   5.035   5.403   6.543  0.1350 -0.8999  0.0516
13923SOL    HW143210   5.036   5.368   6.454  1.0263 -3.2916  0.9095
13923SOL    HW243211   4.950   5.374   6.579 -0.8413  1.2387 -0.3849
13924SOL     OW43212   7.469   4.452   2.467 -0.5869 -0.2517  0.3937
13924SOL    HW143213   7.401   4.401   2.423 -2.0406  0.8802  1.2165
13924SOL    HW243214   7.425   4.491   2.543  0.6085  1.6045  0.2181
13925SOL     OW43215   2.004   2.666   2.284 -0.5592 -0.5608 -0.4313
13925SOL    HW143216   2.064   2.738   2.305  0.3621 -1.6609  0.9279
13925SOL    HW243217   1.921   2.690   2.327 -0.0037 -0.6713  0.7526
13926SOL     OW43218   0.876   0.044   7.527 -0.5599  0.0844  0.0447
13926SOL    HW143219   0.940   0.049   7.598  0.2029 -0.5645 -0.5882
13926SOL    HW243220   0.808  -0.015   7.560 -0.5202  0.2768  0.4739
13927SOL     OW43221   7.712   0.764  11.816  0.4091  0.0256 -0.1122
13927SOL    HW143222   7.788   0.810  11.853  1.2954 -0.3931 -1.3336
13927SOL    HW243223   7.750   0.705  11.751 -1.0493  0.3629 -1.3030
13928SOL     OW43224   3.287   0.319   3.547 -0.6622  0.2629  0.4874
13928SOL    HW143225   3.381   0.333   3.548 -0.4642 -0.9892  1.0793
13928SOL    HW243226   3.276   0.232   3.508 -1.8042  1.6773 -2.7405
13929SOL     OW43227   1.773   1.262   2.557 -0.1876  0.0164  0.4076
13929SOL    HW143228   1.782   1.356   2.568 -1.3889  0.2282 -0.2709
13929SOL    HW243229   1.679   1.248   2.541 -0.4664 -1.5648  2.9655
13930SOL     OW43230   2.368   3.702  10.778 -0.7766  0.1903  0.0569
13930SOL    HW143231   2.446   3.684  10.830  0.1437  1.8055 -0.7044
13930SOL    HW243232   2.400   3.751  10.703 -2.5956  1.3985  0.0156
13931SOL     OW43233   5.223   3.240   8.600  0.1848  0.2919 -0.4732
13931SOL    HW143234   5.128   3.243   8.609  0.3049  0.5481  1.0777
13931SOL    HW243235   5.253   3.187   8.674  1.2525  0.2658 -0.8987
13932SOL     OW43236   5.376   1.827   7.489  0.3445 -0.1715 -0.6250
13932SOL    HW143237   5.392   1.865   7.402  2.0278 -0.0738 -0.3089
13932SOL    HW243238   5.303   1.877   7.524 -0.5697 -0.4080 -2.0934
13933SOL     OW43239   6.954   4.302   3.670  0.7425  0.2586 -0.0385
13933SOL    HW143240   6.865   4.323   3.641  0.6076  2.3683  1.6510
13933SOL    HW243241   6.943   4.227   3.729  0.2056 -0.0088 -0.4685
13934SOL     OW43242   6.338   1.383   6.042 -0.0487  0.0754  0.0410
13934SOL    HW143243   6.386   1.392   6.125  2.8028  0.4370 -1.5011
13934SOL    HW243244   6.261   1.439   6.053  0.4880  0.4911  2.2718
13935SOL     OW43245   0.738   3.276   8.955  0.8053 -0.2242 -0.1304
13935SOL    HW143246   0.726   3.235   8.870 -0.5842 -0.2886  0.0814
13935SOL    HW243247   0.657   3.259   9.003  1.5339 -0.1481  1.2014
13936SOL     OW43248   3.264   4.199   6.527  0.4292  0.4075  0.2883
13936SOL    HW143249   3.230   4.110   6.529 -2.3467  1.2504 -2.6520
13936SOL    HW243250   3.354   4.190   6.494 -0.1008 -1.2465 -0.7877
13937SOL     OW43251   7.609   6.447   2.268  0.1901  0.5393  0.1392
13937SOL    HW143252   7.692   6.412   2.234  0.2139 -0.6410  1.3182
13937SOL    HW243253   7.600   6.532   2.226  1.2658  0.0615 -1.1485
13938SOL     OW43254   7.953   6.024   2.964 -0.1374  0.2826 -0.8310
13938SOL    HW143255   8.028   5.992   2.914  0.1567 -0.7593  0.2349
13938SOL    HW243256   7.972   5.999   3.054  0.3622  3.8709  0.2484
13939SOL     OW43257   5.418   5.768   3.105 -0.2585  0.3639 -0.1213
13939SOL    HW143258   5.497   5.784   3.053 -0.2440  2.3333  0.3951
13939SOL    HW243259   5.450   5.721   3.183  0.0550 -0.6444 -0.8416
13940SOL     OW43260   0.339   0.145   9.279 -0.1772 -0.2153 -0.1881
13940SOL    HW143261   0.418   0.175   9.234 -1.0592  1.6390 -0.6501
13940SOL    HW243262   0.361   0.148   9.372 -0.1298  1.8643 -0.2097
13941SOL     OW43263   6.658   3.307   8.536 -0.2328  0.2027  0.1053
13941SOL    HW143264   6.694   3.326   8.623 -0.3036  1.1957 -0.0734
13941SOL    HW243265   6.564   3.315   8.547 -0.2837 -0.3974  0.1065
13942SOL     OW43266   2.581   6.683   3.054  0.6464  0.5681 -0.0265
13942SOL    HW143267   2.532   6.626   2.994  1.3516 -0.3364  0.2392
13942SOL    HW243268   2.540   6.669   3.139  1.7895 -0.7198  0.3284
13943SOL     OW43269   2.448   3.768  10.487  0.3896 -0.2395 -0.3606
13943SOL    HW143270   2.543   3.773  10.472  0.3877  2.0351 -0.0360
13943SOL    HW243271   2.411   3.756  10.400  0.9350  0.2118 -0.6665
13944SOL     OW43272   6.610   7.052   3.701 -0.5754  0.7067 -0.0905
13944SOL    HW143273   6.645   7.137   3.726  0.0608  0.5699 -0.4830
13944SOL    HW243274   6.585   7.063   3.609  0.3236  0.2341 -0.4071
13945SOL     OW43275   5.880   1.534   2.019  0.7927  0.0536 -0.4981
13945SOL    HW143276   5.895   1.559   1.928  1.0039 -0.3989 -0.5853
13945SOL    HW243277   5.919   1.605   2.070 -1.1125  1.3833 -0.7539
13946SOL     OW43278   3.845   7.590   7.649 -0.2214  0.4753  0.4612
13946SOL    HW143279   3.824   7.501   7.621  1.3016 -0.7356  2.8747
13946SOL    HW243280   3.795   7.601   7.730 -0.2252  1.7746  0.2943
13947SOL     OW43281   0.115   7.185   7.503 -0.5695 -0.1827 -0.3557
13947SOL    HW143282   0.070   7.256   7.457 -0.1752 -1.0066 -2.1070
13947SOL    HW243283   0.069   7.177   7.586 -0.1204  2.6401  0.2663
13948SOL     OW43284   7.540   5.033   5.616  0.3210 -0.5282  0.2820
13948SOL    HW143285   7.602   5.064   5.550  0.9325 -1.0470  0.5991
13948SOL    HW243286   7.596   5.003   5.688 -0.3020 -1.0232  0.5613
13949SOL     OW43287   0.702   1.983   1.128  0.0195 -0.7820  0.3618
13949SOL    HW143288   0.693   2.014   1.039  0.7814  0.8882  0.8393
13949SOL    HW243289   0.612   1.975   1.160 -0.2252  0.9041  0.1844
13950SOL     OW43290   1.213   2.663   2.507  0.2953  0.0807  0.0531
13950SOL    HW143291   1.244   2.662   2.598  0.2031 -0.2088  0.0812
13950SOL    HW243292   1.131   2.614   2.508 -0.8907  1.9578  0.2234
13951SOL     OW43293   3.951   5.094   6.319  0.4200 -0.5562 -0.4883
13951SOL    HW143294   3.892   5.019   6.311 -0.9823  0.5158 -0.7031
13951SOL    HW243295   3.983   5.109   6.230  0.7138 -0.8919 -0.4426
13952SOL     OW43296   2.915   7.200   4.133  0.3875  0.4826  0.7777
13952SOL    HW143297   2.923   7.236   4.044 -0.1827  0.0953  0.5645
13952SOL    HW243298   3.003   7.208   4.170  1.0466 -0.8786 -0.4070
13953SOL     OW43299   1.570   2.287   9.299 -0.2379  0.4474 -0.1753
13953SOL    HW143300   1.620   2.209   9.276 -0.2504  0.1014  0.9260
13953SOL    HW243301   1.618   2.359   9.258  0.4724 -0.0118 -0.1556
13954SOL     OW43302   2.831   1.999   3.936  0.2541 -0.5409 -0.0873
13954SOL    HW143303   2.815   1.990   4.030  0.9930 -1.1394 -0.0107
13954SOL    HW243304   2.769   1.939   3.895 -0.6039  0.2850 -0.0404
13955SOL     OW43305   4.356   2.618   6.511  0.3507  0.2689  0.9233
13955SOL    HW143306   4.379   2.561   6.584  2.1554 -0.4712 -0.1608
13955SOL    HW243307   4.366   2.707   6.546 -0.2428 -0.0675  1.9743
13956SOL     OW43308   2.378   4.607   3.996 -0.2068  0.1254  0.0200
13956SOL    HW143309   2.301   4.557   4.024 -0.1489 -1.0721 -1.8111
13956SOL    HW243310   2.346   4.665   3.927  0.3805  0.2135 -0.1889
13957SOL     OW43311   4.993   4.480   0.783 -0.8072 -0.1034 -0.1887
13957SOL    HW143312   4.947   4.422   0.722 -1.9933 -2.2713  2.5315
13957SOL    HW243313   4.928   4.547   0.805 -1.1837 -0.6325  0.3506
13958SOL     OW43314   5.069   7.879   1.338 -0.0689  0.2083 -0.3899
13958SOL    HW143315   5.068   7.851   1.430  2.8885  0.8731 -0.0564
13958SOL    HW243316   5.075   7.798   1.288 -0.7901 -0.1165  0.0335
13959SOL     OW43317   2.083   0.984   9.114  0.3755 -0.1584  0.6044
13959SOL    HW143318   2.000   0.946   9.086  0.2633  1.0589 -0.8609
13959SOL    HW243319   2.099   0.947   9.201 -1.7229 -0.3602  0.9459
13960SOL     OW43320   0.051   3.997  10.772  0.1506  0.2222  0.4289
13960SOL    HW143321   0.060   3.910  10.811 -2.1221 -0.9405 -1.4034
13960SOL    HW243322   0.123   4.002  10.708  0.2963 -0.3193  0.5459
13961SOL     OW43323   2.804   2.461  11.544 -0.1619 -0.7831  0.5478
13961SOL    HW143324   2.872   2.526  11.527  0.7107 -1.4612  1.4001
13961SOL    HW243325   2.726   2.498  11.502  0.5394  0.3523  0.1850
13962SOL     OW43326   1.538   7.185   0.483 -0.1924  0.0499  1.0192
13962SOL    HW143327   1.576   7.098   0.470 -1.2524 -0.1688 -1.1132
13962SOL    HW243328   1.570   7.237   0.409 -1.9229  0.5705  0.5730
13963SOL     OW43329   1.799   5.152   1.447  0.0205 -0.2363 -0.1620
13963SOL    HW143330   1.719   5.100   1.445  0.1998 -0.7177  2.1905
13963SOL    HW243331   1.870   5.089   1.438  0.1805  0.0602 -1.0856
13964SOL     OW43332   5.611   1.395  10.138 -0.2486  0.0991 -0.1726
13964SOL    HW143333   5.573   1.442  10.064 -0.8225 -1.6500 -1.0300
13964SOL    HW243334   5.554   1.319  10.151 -0.5515  0.6831  2.5131
13965SOL     OW43335   1.458   3.895   4.293 -0.3615  0.2483 -0.5176
13965SOL    HW143336   1.456   3.802   4.315 -0.5599  0.5734  0.8850
13965SOL    HW243337   1.393   3.935   4.351 -0.5652  1.2123 -1.3835
13966SOL     OW43338   6.140   1.345   4.092  0.3352 -0.2521  0.0675
13966SOL    HW143339   6.205   1.310   4.031 -0.8343  1.6279 -2.4593
13966SOL    HW243340   6.180   1.425   4.127  0.0658 -0.0070 -0.1745
13967SOL     OW43341   4.539   3.489  10.180  0.0969 -0.0486 -0.7881
13967SOL    HW143342   4.454   3.467  10.142  0.3617 -1.5890 -0.5412
13967SOL    HW243343   4.566   3.568  10.133 -2.4673  1.8513  0.6951
13968SOL     OW43344   0.019   7.320   1.579 -0.0115 -0.2110 -0.0982
13968SOL    HW143345   0.017   7.324   1.675 -0.2908  0.1507 -0.1178
13968SOL    HW243346   0.034   7.411   1.551  1.5298 -0.5217 -0.3675
13969SOL     OW43347   6.971   7.372   1.499 -0.5205  0.2969 -0.3420
13969SOL    HW143348   7.024   7.367   1.579 -0.4057  1.0572 -0.3633
13969SOL    HW243349   6.963   7.281   1.470 -0.2058  0.0557  0.3004
13970SOL     OW43350   7.169   4.280   1.640 -0.2925  0.3172 -0.9500
13970SOL    HW143351   7.164   4.185   1.635 -1.1865  0.3899 -1.8531
13970SOL    HW243352   7.152   4.300   1.732 -0.9631 -0.3588 -0.9154
13971SOL     OW43353   4.948   0.555  11.429  0.2487  0.1190  0.0525
13971SOL    HW143354   4.917   0.482  11.483  0.0976  1.3473  1.7065
13971SOL    HW243355   5.039   0.566  11.454  0.4263  0.1729 -0.5925
13972SOL     OW43356   6.750   2.575   3.648  0.3532  0.2251 -0.2361
13972SOL    HW143357   6.814   2.562   3.718  0.6568 -1.2007 -0.7489
13972SOL    HW243358   6.666   2.585   3.693  0.8013  1.2638  0.4016
13973SOL     OW43359   3.306   7.416   2.395 -0.9543 -0.5534 -0.6829
13973SOL    HW143360   3.271   7.329   2.411 -0.9173 -0.3362  0.7275
13973SOL    HW243361   3.273   7.469   2.467  1.1108 -0.0212 -0.0394
13974SOL     OW43362   0.756   5.363   4.145  0.0527 -0.0612 -0.0729
13974SOL    HW143363   0.698   5.289   4.159 -0.4174  0.3232  0.0217
13974SOL    HW243364   0.804   5.341   4.065 -0.0550 -0.4850 -0.0201
13975SOL     OW43365   4.142   1.761   4.898  0.7250 -0.1633  0.5667
13975SOL    HW143366   4.141   1.775   4.992 -1.1284  0.7279  0.4698
13975SOL    HW243367   4.108   1.672   4.887  0.7701 -0.2011  0.7313
13976SOL     OW43368   1.531   5.911   0.750  0.0636  0.3318 -0.3011
13976SOL    HW143369   1.598   5.949   0.806 -0.1956 -1.3116  1.2146
13976SOL    HW243370   1.495   5.985   0.701  1.9150  1.4600 -0.0386
13977SOL     OW43371   0.847   5.791   8.415  0.2291 -0.5509 -0.0373
13977SOL    HW143372   0.835   5.743   8.334 -0.1592  2.0872 -1.6591
13977SOL    HW243373   0.760   5.792   8.455  0.5441 -2.3622  0.7885
13978SOL     OW43374   6.216   3.256   6.145 -0.3520 -0.8024  0.3433
13978SOL    HW143375   6.152   3.214   6.203 -0.6228 -0.3119  0.4066
13978SOL    HW243376   6.171   3.334   6.113 -0.2508 -1.1369 -0.6373
13979SOL     OW43377   0.357   0.494   4.718 -1.1741  0.1434 -0.0231
13979SOL    HW143378   0.379   0.570   4.772 -0.7335  0.4734 -0.6451
13979SOL    HW243379   0.321   0.532   4.638 -1.3905 -0.3244 -0.1493
13980SOL     OW43380   3.095   1.582   0.550  0.1477 -0.2850 -0.3579
13980SOL    HW143381   3.029   1.649   0.570  0.8567  0.8031 -1.5688
13980SOL    HW243382   3.127   1.605   0.463  0.6426 -2.0271 -0.6676
13981SOL     OW43383   6.881   4.411   1.131 -0.6272  0.2033  0.1099
13981SOL    HW143384   6.841   4.498   1.139  0.7721  0.9682 -0.7086
13981SOL    HW243385   6.828   4.367   1.064 -1.2672  0.4685  0.4324
13982SOL     OW43386   3.051   5.073   5.064 -0.2499 -0.1298 -0.5502
13982SOL    HW143387   2.957   5.084   5.080 -0.4505 -2.2516  0.1112
13982SOL    HW243388   3.092   5.143   5.113 -1.3298 -1.5192  2.6428
13983SOL     OW43389   0.337   2.541  11.095 -0.2622 -0.5760  0.3185
13983SOL    HW143390   0.311   2.450  11.080  1.1294 -1.2416  1.7103
13983SOL    HW243391   0.350   2.547  11.189  2.9971  0.0676 -0.0708
13984SOL     OW43392   2.334   6.865   2.299  0.1102  0.3745 -0.3631
13984SOL    HW143393   2.413   6.846   2.249 -0.1832 -0.5085 -0.5079
13984SOL    HW243394   2.266   6.877   2.232 -0.6030 -2.2193 -0.2221
13985SOL     OW43395   0.376   1.784   5.266 -0.5524 -0.2892  0.0523
13985SOL    HW143396   0.371   1.705   5.211  0.0507 -0.3204  0.0365
13985SOL    HW243397   0.448   1.767   5.326 -0.9275 -0.0693  0.5688
13986SOL     OW43398   2.375   1.717   0.531 -0.1967 -0.0825 -0.0548
13986SOL    HW143399   2.378   1.625   0.502  0.0690 -0.2319  0.4443
13986SOL    HW243400   2.285   1.744   0.515 -0.0475 -0.1326 -1.1152
13987SOL     OW43401   0.674   4.046  11.391  0.1437  0.4355 -0.3008
13987SOL    HW143402   0.698   4.094  11.470 -0.6958  0.3098  0.0385
13987SOL    HW243403   0.646   3.960  11.422 -1.7785  0.9296 -0.5479
13988SOL     OW43404   1.300   1.307   0.564  0.1282 -0.2437  0.2114
13988SOL    HW143405   1.273   1.287   0.474  0.3172 -0.9913  0.3180
13988SOL    HW243406   1.362   1.380   0.555  0.6887 -0.7781 -0.3263
13989SOL     OW43407   0.269   5.960   8.028 -0.1673 -0.1675  0.3060
13989SOL    HW143408   0.240   6.039   8.074 -0.8657 -0.5847  0.5924
13989SOL    HW243409   0.307   5.905   8.097  2.1887  0.7259 -0.1743
13990SOL     OW43410   3.363   1.048   9.513  0.0970 -0.1055 -0.5473
13990SOL    HW143411   3.401   0.961   9.524  0.1032  0.0191  0.4403
13990SOL    HW243412   3.320   1.044   9.427 -0.6817 -1.3658 -0.1222
13991SOL     OW43413   1.995   6.964   6.208 -0.0474  0.1830 -0.0621
13991SOL    HW143414   2.065   6.899   6.203  1.4038  1.7641 -2.1448
13991SOL    HW243415   2.000   6.998   6.298  1.1922 -0.4478  0.1287
13992SOL     OW43416   1.679   0.797   7.646 -0.0733 -0.0458  0.2712
13992SOL    HW143417   1.666   0.702   7.644 -1.0744  0.0566  1.1942
13992SOL    HW243418   1.632   0.826   7.724 -0.0557  1.2554 -0.1810
13993SOL     OW43419   5.876   4.186   1.616  0.8446 -0.1475  0.0218
13993SOL    HW143420   5.890   4.234   1.534  1.3961 -0.8044 -0.2745
13993SOL    HW243421   5.809   4.121   1.594  0.8370 -0.1843  0.1539
13994SOL     OW43422   6.237   7.402   7.698 -0.0543 -0.9504  0.2721
13994SOL    HW143423   6.296   7.439   7.631 -0.7858  0.7256  0.4917
13994SOL    HW243424   6.294   7.348   7.752  1.1378 -0.0445 -0.0113
13995SOL     OW43425   5.696   3.160   7.265  0.0480  1.1973 -0.0189
13995SOL    HW143426   5.791   3.145   7.267 -0.2000 -0.7291  1.2771
13995SOL    HW243427   5.682   3.233   7.325  0.5884 -0.1104  1.8333
13996SOL     OW43428   5.428   1.720   5.697  0.4319  0.3065 -0.2659
13996SOL    HW143429   5.484   1.669   5.756  0.1000  0.7818  0.4709
13996SOL    HW243430   5.466   1.706   5.610  1.9293  0.9423  0.2556
13997SOL     OW43431   4.131   6.850   7.338  0.3814  0.6465 -0.2281
13997SOL    HW143432   4.222   6.822   7.333  0.4554  0.7197  0.5010
13997SOL    HW243433   4.132   6.922   7.401 -0.2983  0.1141  0.4126
13998SOL     OW43434   6.707   6.394   4.198 -0.0990 -0.2639 -0.2579
13998SOL    HW143435   6.633   6.443   4.234  0.8028  2.7671 -2.0922
13998SOL    HW243436   6.747   6.455   4.135  1.9379 -3.0120 -1.8312
13999SOL     OW43437   0.513   1.804   9.308  0.6338 -0.1395 -0.3513
13999SOL    HW143438   0.493   1.782   9.217  1.4244  1.5570 -0.9815
13999SOL    HW243439   0.428   1.805   9.351  0.3904 -2.6073 -0.6281
14000SOL     OW43440   5.577   5.061   2.144 -0.6953  0.2533 -0.3547
14000SOL    HW143441   5.668   5.076   2.169 -0.9095  0.6570  0.2222
14000SOL    HW243442   5.576   5.072   2.049 -0.0333 -0.3632 -0.4462
14001SOL     OW43443   7.509   5.329   8.440 -0.7729  0.5786  0.1483
14001SOL    HW143444   7.545   5.293   8.358  0.3334 -0.2689  0.9749
14001SOL    HW243445   7.581   5.380   8.477 -0.3671 -1.0774  1.7939
14002SOL     OW43446   2.929   2.631  12.161 -0.4267  0.4910 -0.7808
14002SOL    HW143447   2.939   2.663  12.250 -0.8442 -1.1030 -0.1359
14002SOL    HW243448   2.838   2.651  12.138 -0.9208 -0.8365 -0.0963
14003SOL     OW43449   7.186   5.213   9.168 -0.0767 -0.7349 -0.5003
14003SOL    HW143450   7.196   5.259   9.085  0.7244 -2.6789 -1.5627
14003SOL    HW243451   7.104   5.245   9.204  1.3581  3.0218 -0.0915
14004SOL     OW43452   7.500   0.962   3.110  0.3531 -0.1025 -0.3943
14004SOL    HW143453   7.529   1.050   3.084  2.1515 -0.9791 -1.5764
14004SOL    HW243454   7.555   0.903   3.059 -0.1138 -1.9340  1.1190
14005SOL     OW43455   2.746   5.539   3.289 -0.8161 -0.0006 -0.4549
14005SOL    HW143456   2.774   5.494   3.369  1.5338  0.9366 -0.6713
14005SOL    HW243457   2.766   5.632   3.306 -0.0607  0.1805 -2.1901
14006SOL     OW43458   6.659   6.109   1.412 -0.1364  0.0016 -0.2199
14006SOL    HW143459   6.686   6.200   1.420  3.9973 -1.0949  0.3919
14006SOL    HW243460   6.601   6.095   1.488  0.7511  1.6296  0.8164
14007SOL     OW43461   6.115   3.225   4.276 -0.3201 -0.1237 -0.2011
14007SOL    HW143462   6.165   3.282   4.218 -0.3251 -0.9737 -1.0743
14007SOL    HW243463   6.080   3.283   4.344 -0.0977  0.8504 -0.9051
14008SOL     OW43464   5.671   0.026   0.658 -0.7504 -0.0163 -0.5984
14008SOL    HW143465   5.578   0.048   0.663 -0.3876  1.4411  0.1997
14008SOL    HW243466   5.708   0.090   0.597 -0.0103  0.4182  0.2792
14009SOL     OW43467   2.530   4.610   5.749  0.0142 -0.1210  0.3736
14009SOL    HW143468   2.576   4.662   5.815 -0.6066  0.8671  0.0593
14009SOL    HW243469   2.599   4.559   5.707  0.9583  1.6806 -0.4093
14010SOL     OW43470   3.124   2.762   2.293  0.4783 -0.0685 -0.8453
14010SOL    HW143471   3.039   2.722   2.305  0.6704 -0.0098  1.2451
14010SOL    HW243472   3.127   2.788   2.201 -2.0689  0.6450 -0.7958
14011SOL     OW43473   0.182   7.860   8.190  0.7355  0.4088  0.3621
14011SOL    HW143474   0.125   7.789   8.219  1.3463 -0.8585 -1.3371
14011SOL    HW243475   0.237   7.880   8.265  0.5135 -0.8865  0.8835
14012SOL     OW43476   5.021   4.479  11.265  0.0459  0.0536  0.2351
14012SOL    HW143477   4.941   4.437  11.296 -0.5923  1.1259  0.1270
14012SOL    HW243478   5.080   4.478  11.340  0.5162 -2.0521 -0.1068
14013SOL     OW43479   5.631   7.621   7.823 -0.1889  0.5800  0.7207
14013SOL    HW143480   5.703   7.681   7.843 -0.5832  1.2556  0.1849
14013SOL    HW243481   5.668   7.557   7.762  0.0436  0.7255  0.7109
14014SOL     OW43482   7.829   7.012   5.093 -0.1465 -0.1201  0.1465
14014SOL    HW143483   7.788   6.954   5.029  0.1583  0.3114 -0.4545
14014SOL    HW243484   7.763   7.024   5.161 -0.5749 -0.3714 -0.2200
14015SOL     OW43485   2.757   3.741   0.379  0.4022 -0.2924  0.0155
14015SOL    HW143486   2.812   3.693   0.441  0.9334  1.1624  0.7027
14015SOL    HW243487   2.715   3.809   0.431  1.7230  1.6899 -1.3558
14016SOL     OW43488   5.590   1.957   5.507  0.0587 -0.3066  0.1633
14016SOL    HW143489   5.629   1.934   5.591 -0.0997  0.6374  0.5168
14016SOL    HW243490   5.563   1.874   5.469  3.2598 -1.1559 -0.5682
14017SOL     OW43491   3.450   5.564   6.192  0.0134 -0.5226 -0.5647
14017SOL    HW143492   3.515   5.578   6.124 -0.9991  0.7305 -1.3066
14017SOL    HW243493   3.429   5.471   6.186  2.9603 -1.4012  0.8649
14018SOL     OW43494   1.641   4.082   5.715 -0.3799 -0.0003 -0.3726
14018SOL    HW143495   1.559   4.126   5.736 -0.0594  0.6543 -0.4613
14018SOL    HW243496   1.674   4.129   5.639  1.2663  1.3205  1.0761
14019SOL     OW43497   1.294   4.149   0.322 -0.0555 -0.4043  0.1418
14019SOL    HW143498   1.326   4.062   0.348  0.1332 -0.1459  0.7919
14019SOL    HW243499   1.359   4.181   0.261  1.5977  0.5889  2.2998
14020SOL     OW43500   3.047   5.145   9.071 -0.5435  0.4946 -0.7158
14020SOL    HW143501   3.072   5.220   9.017  0.6544 -1.7097 -3.4768
14020SOL    HW243502   3.127   5.094   9.079 -1.0846 -0.0890  1.9587
14021SOL     OW43503   4.054   3.351   7.890  0.2887  0.3739  0.2483
14021SOL    HW143504   3.990   3.338   7.960 -0.0386  2.1051  0.2977
14021SOL    HW243505   4.114   3.276   7.899 -2.6196 -2.3093 -0.8892
14022SOL     OW43506   4.584   6.421   3.073  0.1687  0.0564  0.0573
14022SOL    HW143507   4.564   6.388   2.985 -0.0164  1.2386 -0.3628
14022SOL    HW243508   4.518   6.381   3.129  0.3610 -0.8063 -0.3039
14023SOL     OW43509   4.570   3.221   0.116 -0.7247  0.4651  0.2826
14023SOL    HW143510   4.535   3.165   0.047  0.4252 -0.5199  0.4550
14023SOL    HW243511   4.497   3.279   0.140 -1.8612 -0.7408 -0.1311
14024SOL     OW43512   3.654   6.161   6.773  0.2803 -0.0502  0.0949
14024SOL    HW143513   3.666   6.107   6.695  0.1044  0.6014 -0.3975
14024SOL    HW243514   3.726   6.137   6.831 -0.4727 -1.6706  0.3995
14025SOL     OW43515   0.606   2.845  11.725 -0.1882  0.5672 -0.3543
14025SOL    HW143516   0.650   2.761  11.712 -1.0734 -0.4008  2.2264
14025SOL    HW243517   0.674   2.902  11.760  0.3962  0.9573 -2.0378
14026SOL     OW43518   6.787   4.212   7.521  0.1361  0.0065 -0.4606
14026SOL    HW143519   6.743   4.227   7.605  1.8887 -0.7209  0.6546
14026SOL    HW243520   6.746   4.133   7.486 -0.0068 -0.2010  0.1583
14027SOL     OW43521   7.720   3.335   4.532  0.3640 -0.7395  0.0949
14027SOL    HW143522   7.634   3.314   4.498  0.7676 -1.1802 -0.6734
14027SOL    HW243523   7.769   3.367   4.456  0.4991  0.7522  0.7603
14028SOL     OW43524   5.384   5.293   7.095 -0.1056 -0.0663  0.2813
14028SOL    HW143525   5.416   5.236   7.165  0.2730 -1.3999 -0.9368
14028SOL    HW243526   5.387   5.239   7.016  0.4948  1.7002 -0.9758
14029SOL     OW43527   7.201   3.431   8.051  0.2674  0.3014 -0.0036
14029SOL    HW143528   7.245   3.459   8.132  0.9664  0.4437 -0.4196
14029SOL    HW243529   7.252   3.356   8.020 -1.2404 -1.1092  0.7817
14030SOL     OW43530   2.557   2.410   1.828 -0.6741 -0.2950 -0.2441
14030SOL    HW143531   2.576   2.425   1.736  0.1215 -0.0218 -0.0475
14030SOL    HW243532   2.626   2.459   1.875  0.2383 -2.1664  0.4733
14031SOL     OW43533   2.287   2.015  10.886  0.2069  0.2920 -0.0242
14031SOL    HW143534   2.340   1.977  10.955 -1.4526 -0.3029  0.9656
14031SOL    HW243535   2.342   2.083  10.848  2.0568 -0.9913  0.2429
14032SOL     OW43536   3.883   7.322   9.440  0.0081 -0.5519  0.1980
14032SOL    HW143537   3.802   7.281   9.410 -0.5509 -0.3631  1.3946
14032SOL    HW243538   3.905   7.277   9.521  0.5035  0.1354  0.4589
14033SOL     OW43539   4.877   1.596   4.657 -0.4446 -0.2446  0.0239
14033SOL    HW143540   4.916   1.611   4.571  0.1855  2.4377  0.6907
14033SOL    HW243541   4.793   1.555   4.638 -0.6406  0.9185 -1.9201
14034SOL     OW43542   5.476   1.864   7.193  0.6386  0.3376  0.2120
14034SOL    HW143543   5.548   1.818   7.235  1.1657 -0.2268 -1.2291
14034SOL    HW243544   5.519   1.923   7.131 -0.1145  0.8206  0.1401
14035SOL     OW43545   0.339   5.812   4.831  0.2227 -0.0451 -0.5285
14035SOL    HW143546   0.408   5.813   4.898 -0.9247  2.0635  0.7103
14035SOL    HW243547   0.336   5.902   4.798 -2.1458  0.0225 -0.2890
14036SOL     OW43548   2.014   5.171   6.193  0.3353  0.0503 -0.1918
14036SOL    HW143549   2.059   5.088   6.175 -1.1877 -1.0893  0.9762
14036SOL    HW243550   1.997   5.169   6.288 -3.2062 -0.2068 -0.6870
14037SOL     OW43551   1.093   7.624   6.483  0.1586  0.0252  0.8599
14037SOL    HW143552   1.143   7.692   6.438  0.8003  0.0280  1.5582
14037SOL    HW243553   1.078   7.660   6.571  0.6440 -0.7874  1.2920
14038SOL     OW43554   6.924   2.839  11.730 -0.1981  0.2410 -0.3688
14038SOL    HW143555   6.957   2.750  11.716  0.3991  0.4329 -0.2288
14038SOL    HW243556   6.846   2.827  11.784 -0.4163 -0.2318 -0.7736
14039SOL     OW43557   4.561   7.529   5.328  0.4606 -0.0936  0.0243
14039SOL    HW143558   4.473   7.534   5.366 -0.0036 -1.6646 -0.7625
14039SOL    HW243559   4.617   7.577   5.390 -0.9127  0.8353  0.5900
14040SOL     OW43560   5.904   2.022   1.968  0.0656  0.4501 -0.0506
14040SOL    HW143561   5.969   2.092   1.969  1.2578 -0.6095  0.5487
14040SOL    HW243562   5.869   2.023   1.879  1.6635  0.4052 -0.7210
14041SOL     OW43563   7.701   3.630   7.848  0.2448 -0.1424  0.2444
14041SOL    HW143564   7.631   3.567   7.864  0.5457 -0.4931  0.2201
14041SOL    HW243565   7.728   3.659   7.936 -0.9775  1.1920  0.2086
14042SOL     OW43566   3.982   7.705   3.750  0.0130  0.7520  0.0556
14042SOL    HW143567   4.013   7.728   3.837  1.1196  1.3480 -0.4740
14042SOL    HW243568   3.907   7.649   3.765 -0.3376  1.5391  1.3948
14043SOL     OW43569   0.084   1.847   6.655  1.0693  0.0543  0.7538
14043SOL    HW143570   0.062   1.866   6.746  1.1904  0.5569  0.6801
14043SOL    HW243571   0.028   1.772   6.632 -1.6724  2.1495  0.1269
14044SOL     OW43572   7.133   2.913   5.587 -0.0610  0.1824 -0.9227
14044SOL    HW143573   7.062   2.932   5.648 -0.8109 -1.0533 -1.3676
14044SOL    HW243574   7.091   2.907   5.502  0.4304 -1.3111 -1.0907
14045SOL     OW43575   7.096   4.836   8.094 -0.4669  0.0802 -0.3356
14045SOL    HW143576   7.078   4.753   8.139 -0.2823  0.1521 -0.1286
14045SOL    HW243577   7.185   4.827   8.061 -0.2809  0.3703  0.0789
14046SOL     OW43578   2.699   7.810   8.111  0.0921 -0.3026  0.1810
14046SOL    HW143579   2.768   7.865   8.148  0.4973 -0.8545  0.2605
14046SOL    HW243580   2.681   7.745   8.178 -0.4181 -0.2474  0.1058
14047SOL     OW43581   7.850   0.876   2.011 -0.4610  0.2022  0.4197
14047SOL    HW143582   7.875   0.969   2.011 -0.7271  0.2846  1.3345
14047SOL    HW243583   7.890   0.841   2.091  1.4399 -0.9900 -0.9830
14048SOL     OW43584   3.847   3.621   5.234  0.0565  0.2401  0.1719
14048SOL    HW143585   3.904   3.602   5.159  1.7855  1.0820  1.2016
14048SOL    HW243586   3.782   3.551   5.234  0.4384 -0.1560 -1.6973
14049SOL     OW43587   6.090   7.242  11.749  0.2551  0.0544  0.3644
14049SOL    HW143588   6.098   7.288  11.666  0.2519  2.2706  1.5237
14049SOL    HW243589   6.051   7.157  11.726 -0.5470  0.9364 -1.7781
14050SOL     OW43590   7.260   3.470   2.664  0.1394 -0.0167 -0.2479
14050SOL    HW143591   7.313   3.503   2.590  1.6719 -1.6253  0.0466
14050SOL    HW243592   7.276   3.532   2.734 -1.6752  1.7794 -1.3369
14051SOL     OW43593   0.229   7.853  10.161  0.5684  0.2800  0.1334
14051SOL    HW143594   0.318   7.856  10.194  0.5405 -0.5516  0.3238
14051SOL    HW243595   0.176   7.891  10.231  0.7449  0.5394  0.1268
14052SOL     OW43596   0.270   7.501   1.916 -0.2791  0.4560  0.0896
14052SOL    HW143597   0.325   7.442   1.863 -1.6297  0.4277 -1.3580
14052SOL    HW243598   0.273   7.584   1.869 -0.6841  0.7279  0.5475
14053SOL     OW43599   5.074   1.973   4.385 -0.0441  0.4130 -0.0117
14053SOL    HW143600   5.155   1.935   4.418 -0.2262 -0.5082 -0.5875
14053SOL    HW243601   5.007   1.943   4.447 -0.1609 -0.0708 -0.3656
14054SOL     OW43602   1.449   5.110   5.813  0.1200  0.2511 -0.1427
14054SOL    HW143603   1.401   5.034   5.780 -1.9311  0.7447  1.4896
14054SOL    HW243604   1.447   5.099   5.908  2.3893  0.8734  0.0332
14055SOL     OW43605   2.231   6.510   4.347 -0.0969 -0.2072 -0.2534
14055SOL    HW143606   2.277   6.432   4.319  1.5637  0.0389  1.5910
14055SOL    HW243607   2.218   6.561   4.266  0.7412 -1.3768 -1.1497
14056SOL     OW43608   5.987   0.649   9.139 -0.7018 -0.0400 -0.0267
14056SOL    HW143609   5.977   0.742   9.121 -2.1610 -0.0558  0.6232
14056SOL    HW243610   6.040   0.645   9.218  0.2237  0.1916 -0.6176
14057SOL     OW43611   0.733   5.336  11.330 -0.2364  0.4014 -0.3293
14057SOL    HW143612   0.683   5.346  11.249  2.5607  0.7183 -2.1559
14057SOL    HW243613   0.762   5.244  11.330 -0.6787  0.2385  0.6637
14058SOL     OW43614   0.532   7.120   7.793  0.2943  0.0024 -0.5984
14058SOL    HW143615   0.613   7.105   7.744  2.0780  2.3700  1.3843
14058SOL    HW243616   0.528   7.047   7.855  1.5467  0.3974 -0.0116
14059SOL     OW43617   1.431   2.108   8.430  0.2907 -1.1887  0.2352
14059SOL    HW143618   1.346   2.149   8.447  0.6982  0.7924 -1.9268
14059SOL    HW243619   1.410   2.016   8.413 -1.6353 -0.5300 -1.3429
14060SOL     OW43620   3.777   7.623  12.008 -0.2127 -0.4815 -0.1492
14060SOL    HW143621   3.760   7.541  11.962 -0.0754 -1.1351  0.9482
14060SOL    HW243622   3.872   7.624  12.021 -0.2543 -0.3136  0.1449
14061SOL     OW43623   2.739   1.106  11.316  0.2761  0.2823  0.3185
14061SOL    HW143624   2.725   1.066  11.402  0.2106 -0.9144 -0.2333
14061SOL    HW243625   2.685   1.055  11.256  1.9139 -0.2483 -0.7764
14062SOL     OW43626   2.951   7.485   3.595 -0.1849 -0.2989 -0.0380
14062SOL    HW143627   2.974   7.547   3.664  2.4222  0.2744 -1.2765
14062SOL    HW243628   2.871   7.520   3.556  0.1322  1.1964  0.5795
14063SOL     OW43629   4.611   3.337   1.957 -0.0416 -0.0802 -0.5897
14063SOL    HW143630   4.655   3.398   2.017 -0.2891 -0.2155 -0.2697
14063SOL    HW243631   4.518   3.350   1.974 -0.1019 -1.8067  0.7790
14064SOL     OW43632   0.418   4.838   8.845  0.0730  0.1361 -0.0531
14064SOL    HW143633   0.510   4.840   8.871  0.8866  0.0352 -2.6418
14064SOL    HW243634   0.410   4.909   8.782 -1.4176 -0.3777 -0.4756
14065SOL     OW43635   5.620   2.421  12.330 -0.0534  0.1577 -0.0074
14065SOL    HW143636   5.620   2.457  12.241 -1.0670  1.6526  0.5667
14065SOL    HW243637   5.615   2.326  12.317  1.0058  0.2808 -1.5508
14066SOL     OW43638   1.445   5.234   6.492  0.2934 -0.8261 -0.0351
14066SOL    HW143639   1.399   5.289   6.555 -0.1466 -1.0677 -0.1387
14066SOL    HW243640   1.420   5.270   6.407  0.1841 -1.0450 -0.0959
14067SOL     OW43641   0.635   1.014  10.231 -0.2876  0.1574  0.6595
14067SOL    HW143642   0.677   1.046  10.151 -1.9984  1.0885  0.0821
14067SOL    HW243643   0.697   0.950  10.267  0.9737  0.4692 -0.8553
14068SOL     OW43644   0.102   5.552   8.212 -0.7477 -0.2732  0.0936
14068SOL    HW143645   0.059   5.512   8.136 -0.2216  0.0604 -0.3823
14068SOL    HW243646   0.067   5.641   8.215 -1.2615 -0.4824  0.6411
14069SOL     OW43647   7.272   1.076   7.861 -0.0299 -0.2890  0.4604
14069SOL    HW143648   7.188   1.037   7.884 -0.1587 -0.1199  0.2792
14069SOL    HW243649   7.277   1.155   7.915 -0.1770 -0.0747  0.1615
14070SOL     OW43650   2.735   5.455   4.759 -0.9542 -0.2170  0.6091
14070SOL    HW143651   2.789   5.379   4.781 -1.1727 -0.0642  1.7134
14070SOL    HW243652   2.645   5.425   4.771 -1.2041 -0.6066 -1.6568
14071SOL     OW43653   1.561   0.477   7.107 -0.5027 -0.7151  0.5392
14071SOL    HW143654   1.520   0.407   7.158  0.4592 -0.1695  2.1415
14071SOL    HW243655   1.652   0.477   7.135 -0.5988  1.5757  1.0825
14072SOL     OW43656   7.800   5.450   1.611  0.5088  0.2918 -0.3843
14072SOL    HW143657   7.844   5.442   1.696 -0.0336 -1.2991 -0.2167
14072SOL    HW243658   7.741   5.525   1.621  0.7009  0.3295  0.5304
14073SOL     OW43659   3.142   0.618   4.714 -0.6600 -0.0914  0.1452
14073SOL    HW143660   3.084   0.560   4.664 -0.2298 -0.2921 -0.1223
14073SOL    HW243661   3.200   0.559   4.762 -1.0890  0.0984  0.9155
14074SOL     OW43662   4.654   6.128   3.308  0.0036  0.1738 -0.2990
14074SOL    HW143663   4.570   6.095   3.338 -0.8716  1.2965 -1.4381
14074SOL    HW243664   4.664   6.213   3.353  0.5203  0.0654 -0.1953
14075SOL     OW43665   1.648   2.168   7.113  0.7161 -0.2309 -0.2031
14075SOL    HW143666   1.631   2.131   7.027  1.1339 -0.3251 -0.2493
14075SOL    HW243667   1.620   2.259   7.106 -1.6744 -0.8630  0.3461
14076SOL     OW43668   5.126   5.999   7.351  0.4927 -1.0857 -0.5868
14076SOL    HW143669   5.141   6.042   7.435 -0.0776 -1.9474 -0.0258
14076SOL    HW243670   5.188   6.040   7.291 -1.6122  2.2352 -0.7274
14077SOL     OW43671   1.217   3.479   8.310 -0.0526 -0.4575 -0.3713
14077SOL    HW143672   1.312   3.472   8.296 -0.0472 -0.5237 -0.3043
14077SOL    HW243673   1.208   3.495   8.404 -0.1566 -1.7253 -0.1461
14078SOL     OW43674   6.638   7.161   5.234  0.8192  0.5667  0.1539
14078SOL    HW143675   6.585   7.091   5.272 -0.1286  0.4034 -1.3810
14078SOL    HW243676   6.718   7.162   5.287  0.4766 -1.0811  0.7656
14079SOL     OW43677   2.323   0.951  10.898  0.7091 -0.0575 -0.5477
14079SOL    HW143678   2.411   0.951  10.861  0.8931  1.1829 -0.1474
14079SOL    HW243679   2.279   1.023  10.854 -0.0359 -0.5019 -0.5485
14080SOL     OW43680   7.892   6.737   6.012 -0.1957  0.0438  0.3213
14080SOL    HW143681   7.987   6.745   6.018 -0.3187  0.7200  1.8361
14080SOL    HW243682   7.878   6.654   5.967  1.1143 -1.0221  1.7659
14081SOL     OW43683   1.314   2.502   8.094 -0.2220 -0.0154  0.4908
14081SOL    HW143684   1.274   2.445   8.028  2.3019  1.1177 -2.2371
14081SOL    HW243685   1.342   2.443   8.164 -1.1617 -1.5495 -0.3713
14082SOL     OW43686   5.843   1.263   1.958  0.1129 -0.3206 -0.0015
14082SOL    HW143687   5.926   1.236   1.997  0.5041 -0.9097 -1.2264
14082SOL    HW243688   5.834   1.355   1.984  1.0074 -0.3310  0.3767
14083SOL     OW43689   5.272   3.765  11.962  0.0427 -0.0674  0.0335
14083SOL    HW143690   5.203   3.742  12.024 -0.6338 -0.9336 -1.0060
14083SOL    HW243691   5.238   3.842  11.916 -0.2119 -0.4372 -0.4120
14084SOL     OW43692   4.167   7.131   5.261 -0.3058 -0.6613 -0.2045
14084SOL    HW143693   4.160   7.094   5.349  1.5762  2.0383  1.1991
14084SOL    HW243694   4.211   7.063   5.210  1.6879 -1.0237  1.8446
14085SOL     OW43695   0.054   2.215   0.553  0.0523  0.2268  0.0941
14085SOL    HW143696   0.143   2.224   0.521  0.5378 -2.2434  0.5378
14085SOL    HW243697   0.064   2.173   0.639 -1.5348  0.0697  0.2319
14086SOL     OW43698   3.438   6.049   9.822  0.6390 -0.4310 -0.2719
14086SOL    HW143699   3.518   6.080   9.863  0.0290  1.5877 -0.5371
14086SOL    HW243700   3.382   6.126   9.815 -0.9425 -1.5818 -1.0224
14087SOL     OW43701   5.136   7.949   3.873  0.4522  0.0002  0.3311
14087SOL    HW143702   5.217   7.917   3.913  0.0367 -0.3963  0.8574
14087SOL    HW243703   5.066   7.915   3.929 -0.1896 -1.2006 -1.1503
14088SOL     OW43704   0.708   4.440   6.928 -0.2154  0.2691  0.4722
14088SOL    HW143705   0.615   4.442   6.907 -0.1365  1.2518  0.1829
14088SOL    HW243706   0.733   4.532   6.940  0.8542  0.0751 -0.0962
14089SOL     OW43707   1.692   3.656   6.829 -0.7792  0.2369 -0.2413
14089SOL    HW143708   1.767   3.676   6.887  0.8157 -2.6556 -1.0853
14089SOL    HW243709   1.685   3.732   6.772  1.3743  0.7167  0.0404
14090SOL     OW43710   4.367   5.915   7.074 -1.1968  0.5164  0.4532
14090SOL    HW143711   4.321   5.943   7.154 -2.6047 -0.8345  0.1562
14090SOL    HW243712   4.305   5.857   7.030  0.8207 -1.4734  0.0542
14091SOL     OW43713   1.589   3.484  10.200  0.1360  0.1475 -0.6015
14091SOL    HW143714   1.546   3.521  10.122  1.3816  2.3574 -0.3227
14091SOL    HW243715   1.675   3.456  10.168  0.0188 -0.5118 -0.3453
14092SOL     OW43716   4.237   5.127   6.296 -0.5220 -0.2204 -0.5685
14092SOL    HW143717   4.158   5.133   6.348  0.2499  2.1692  0.4779
14092SOL    HW243718   4.232   5.201   6.235  0.8325 -0.0797 -0.5527
14093SOL     OW43719   5.932   6.073   2.283 -0.1836 -0.1174 -0.7243
14093SOL    HW143720   5.989   6.038   2.214 -0.7823  0.3035 -1.4383
14093SOL    HW243721   5.891   5.996   2.321  1.8479 -0.5828  0.7353
14094SOL     OW43722   3.593   2.262  11.982 -0.4357 -0.1480 -0.2295
14094SOL    HW143723   3.587   2.315  12.062  0.7866 -0.8035  0.3245
14094SOL    HW243724   3.576   2.172  12.012 -0.5030 -0.3277 -0.8071
14095SOL     OW43725   0.821   0.323   8.323  0.2624 -0.5622  0.3333
14095SOL    HW143726   0.891   0.383   8.298 -1.3839  0.6082 -1.8584
14095SOL    HW243727   0.790   0.356   8.407 -0.5872  1.7464 -0.7971
14096SOL     OW43728   6.790   6.222   9.366  0.1362  0.0871 -0.1943
14096SOL    HW143729   6.870   6.273   9.380 -1.7453  3.1732  0.4632
14096SOL    HW243730   6.786   6.164   9.442  1.5587  0.1254 -0.0522
14097SOL     OW43731   5.973   1.929  10.185 -0.1217 -0.3631  0.1009
14097SOL    HW143732   6.018   1.870  10.125 -0.4898 -0.0625 -0.4820
14097SOL    HW243733   5.996   1.897  10.272 -0.4655 -1.4697 -0.2039
14098SOL     OW43734   4.010   3.244  10.111 -0.1432  0.0953 -0.1591
14098SOL    HW143735   4.016   3.281  10.198  0.0657  0.4758 -0.3326
14098SOL    HW243736   3.979   3.316  10.056 -1.2914 -0.4268 -0.2153
14099SOL     OW43737   1.515   3.414   9.044 -0.9316  0.5504 -0.4664
14099SOL    HW143738   1.423   3.389   9.038 -1.2655  1.2423  1.1907
14099SOL    HW243739   1.563   3.332   9.029 -1.8745 -0.2223  0.5914
14100SOL     OW43740   5.271   6.892   8.644 -0.0266 -0.6477  0.3717
14100SOL    HW143741   5.222   6.811   8.662 -0.3657 -0.3087  1.0131
14100SOL    HW243742   5.226   6.959   8.696  1.1201 -0.3194  0.9741
14101SOL     OW43743   1.056   6.918   9.208 -0.1081 -0.2369 -0.5271
14101SOL    HW143744   1.115   6.910   9.133  1.5905  0.0632  0.7332
14101SOL    HW243745   0.972   6.884   9.176  0.5185  0.0487 -2.6010
14102SOL     OW43746   1.433   3.497  11.446 -0.0431 -0.1968 -0.1367
14102SOL    HW143747   1.521   3.462  11.437  0.4219  1.2900 -2.1345
14102SOL    HW243748   1.421   3.552  11.368 -2.7971 -0.4718 -0.0047
14103SOL     OW43749   3.172   5.595   2.458  0.1906  0.6043 -0.0822
14103SOL    HW143750   3.145   5.514   2.501  1.9187  0.7670  1.4273
14103SOL    HW243751   3.093   5.650   2.460 -1.3617 -1.3579 -2.1701
14104SOL     OW43752   1.292   2.765   8.157  0.5669 -0.6313 -0.4863
14104SOL    HW143753   1.303   2.675   8.124  2.1166 -0.0306 -1.7638
14104SOL    HW243754   1.356   2.771   8.228 -0.2986 -0.8477  0.3258
14105SOL     OW43755   6.290   3.071   4.767  0.4018  0.2530  0.0818
14105SOL    HW143756   6.226   3.122   4.717  0.0416  0.6929  0.9776
14105SOL    HW243757   6.264   3.083   4.859 -1.0265 -3.2494  0.3067
14106SOL     OW43758   1.387   5.363   7.707  0.5735  1.1122  0.1395
14106SOL    HW143759   1.303   5.349   7.665  1.0962  0.1016 -0.6063
14106SOL    HW243760   1.385   5.455   7.736 -0.9281  0.9833  0.5089
14107SOL     OW43761   0.200   0.683   1.008  0.9207 -0.4347 -0.2446
14107SOL    HW143762   0.183   0.759   1.065 -0.4680  1.4618 -2.9647
14107SOL    HW243763   0.293   0.689   0.988  0.7855  0.7856 -0.6260
14108SOL     OW43764   2.420   2.170   1.247 -0.0291 -0.2811 -0.3100
14108SOL    HW143765   2.476   2.208   1.180 -0.9529  0.4499 -0.6960
14108SOL    HW243766   2.469   2.180   1.329  0.7296 -0.3913 -0.7455
14109SOL     OW43767   6.908   6.757   3.076 -0.4294  0.2633 -0.3035
14109SOL    HW143768   6.942   6.742   3.165 -0.8582  0.9104 -0.0178
14109SOL    HW243769   6.821   6.716   3.077 -1.3293  2.0543  0.2732
14110SOL     OW43770   1.083   7.697  10.328  0.5329 -0.4573  0.6286
14110SOL    HW143771   1.089   7.782  10.372  2.6347 -0.6349  0.8222
14110SOL    HW243772   1.078   7.633  10.399 -1.4626 -0.5270  0.4779
14111SOL     OW43773   6.437   2.774  11.988  0.5439 -0.6955  0.0310
14111SOL    HW143774   6.348   2.740  11.977 -0.2862  0.7220  1.8238
14111SOL    HW243775   6.432   2.865  11.956  1.3059 -0.5724  0.2470
14112SOL     OW43776   1.734   3.353   7.848  0.7166  0.0590  0.6007
14112SOL    HW143777   1.721   3.443   7.819 -0.6229  0.2346  1.6251
14112SOL    HW243778   1.681   3.300   7.788  2.3445 -0.1831 -0.6610
14113SOL     OW43779   2.855   5.862   0.590  0.1945  0.0654 -0.9979
14113SOL    HW143780   2.807   5.860   0.507 -0.0892 -1.0518 -0.8162
14113SOL    HW243781   2.899   5.777   0.594  0.2797  0.1500 -0.0332
14114SOL     OW43782   6.244   0.563   2.526 -0.6078 -0.4768 -0.3467
14114SOL    HW143783   6.326   0.608   2.505 -0.6557 -0.1315  0.2097
14114SOL    HW243784   6.270   0.473   2.545 -0.3346 -0.3183  0.0282
14115SOL     OW43785   3.696   2.919   0.999 -0.3746 -0.0796  0.0912
14115SOL    HW143786   3.663   2.855   0.936 -1.8743  0.8780 -0.1465
14115SOL    HW243787   3.729   2.866   1.071  0.3712 -1.1702 -0.9920
14116SOL     OW43788   0.567   3.064   6.055 -0.3884  0.7220  0.2494
14116SOL    HW143789   0.518   3.082   6.135 -2.8644  0.0543 -1.0381
14116SOL    HW243790   0.572   3.148   6.010  2.4291  1.4678  1.7461
14117SOL     OW43791   6.223   1.805   0.280  0.0344  0.0368  0.1281
14117SOL    HW143792   6.226   1.899   0.263 -0.1195  0.2034  0.9604
14117SOL    HW243793   6.292   1.769   0.224  0.0933  0.6402 -0.2038
14118SOL     OW43794   5.698   5.777   3.978  0.8806 -0.3025  0.2841
14118SOL    HW143795   5.792   5.782   3.994  0.5725  0.5520  2.0050
14118SOL    HW243796   5.690   5.717   3.903  2.9309  1.5652 -1.5904
14119SOL     OW43797   0.546   6.631  10.327 -0.1778 -0.0540 -0.3094
14119SOL    HW143798   0.638   6.646  10.345  0.3578 -0.9819 -2.0638
14119SOL    HW243799   0.537   6.536  10.323 -1.7889 -0.1234  2.3923
14120SOL     OW43800   2.206   3.104   1.098  0.0575 -0.1741  0.0150
14120SOL    HW143801   2.283   3.153   1.126  0.2676 -0.4393 -0.0918
14120SOL    HW243802   2.208   3.024   1.151 -0.0985 -0.2205 -0.0484
14121SOL     OW43803   4.065   4.790   2.020  0.1283 -0.4736  0.0986
14121SOL    HW143804   4.043   4.848   2.092  1.5176  0.5711 -0.2721
14121SOL    HW243805   4.042   4.702   2.051 -0.6445  0.1127  1.2270
14122SOL     OW43806   4.557   3.866  12.045 -0.1002  0.0510  0.0251
14122SOL    HW143807   4.576   3.953  12.010 -1.0219 -0.7238 -2.6258
14122SOL    HW243808   4.489   3.831  11.987 -0.0654 -2.2895  1.2749
14123SOL     OW43809   2.107   5.083   4.604  0.4938 -0.0369  0.1446
14123SOL    HW143810   2.071   5.171   4.598 -0.2592 -0.3855 -0.6887
14123SOL    HW243811   2.188   5.086   4.552 -1.1863 -0.6168 -2.7619
14124SOL     OW43812   0.042   2.744   3.409 -0.7632 -0.0544 -0.0128
14124SOL    HW143813   0.115   2.792   3.448 -0.1670  0.6633 -1.8831
14124SOL    HW243814  -0.036   2.793   3.434 -0.6781 -0.8661  2.0635
14125SOL     OW43815   2.598   2.413   4.678  0.2793  0.4506  0.0150
14125SOL    HW143816   2.663   2.364   4.627  0.5058  0.0713  0.6559
14125SOL    HW243817   2.647   2.489   4.711 -0.2046  1.4191 -1.4153
14126SOL     OW43818   6.471   6.144   8.888  0.2036  0.2879 -0.0126
14126SOL    HW143819   6.431   6.083   8.827 -1.5430  1.0648  0.2787
14126SOL    HW243820   6.474   6.227   8.839 -0.7501  0.7903  0.7346
14127SOL     OW43821   3.760   7.465   9.870 -0.3247 -0.0567 -0.1123
14127SOL    HW143822   3.785   7.554   9.895 -0.3980  0.0192 -0.3085
14127SOL    HW243823   3.706   7.476   9.792 -1.0226 -0.2190  0.3365
14128SOL     OW43824   6.828   4.004   5.243 -0.1971 -0.0440 -0.3482
14128SOL    HW143825   6.922   4.008   5.259 -0.3999  0.5518  0.8233
14128SOL    HW243826   6.793   4.079   5.289 -1.3310 -0.6716 -0.1492
14129SOL     OW43827   5.206   3.323   8.342 -0.3355  0.0116 -0.0675
14129SOL    HW143828   5.193   3.259   8.411 -1.5510  2.1010  1.7819
14129SOL    HW243829   5.137   3.304   8.278 -1.4647  0.1871  1.0600
14130SOL     OW43830   7.086   4.268   3.433 -0.6575 -0.0455 -0.0233
14130SOL    HW143831   7.051   4.280   3.521  0.1037 -0.8023  0.4003
14130SOL    HW243832   7.181   4.271   3.444 -0.5198 -1.3554 -0.6061
14131SOL     OW43833   2.010   5.043  11.795  0.4897  0.6418  0.1389
14131SOL    HW143834   2.088   5.038  11.850  0.1533  0.4265  0.6018
14131SOL    HW243835   2.002   4.955  11.758  0.3657  0.6140  0.2314
14132SOL     OW43836   1.248   6.923   0.278 -0.7882  0.7172 -0.3645
14132SOL    HW143837   1.290   6.857   0.222  0.0378  1.9177 -1.2272
14132SOL    HW243838   1.299   6.922   0.359 -0.6213  0.4673 -0.4711
14133SOL     OW43839   1.122   2.323   0.681  0.4693  0.7825 -0.0496
14133SOL    HW143840   1.200   2.271   0.664  0.1751  0.2073  0.3407
14133SOL    HW243841   1.156   2.404   0.720  0.9000  0.7190 -0.2898
14134SOL     OW43842   3.190   6.989   0.823 -0.0434 -0.1992 -0.6153
14134SOL    HW143843   3.109   7.039   0.828 -0.4168 -0.8695  0.6952
14134SOL    HW243844   3.260   7.054   0.815 -0.5616  0.5119  0.4664
14135SOL     OW43845   4.856   0.847   7.901 -1.3633 -0.0518  0.0310
14135SOL    HW143846   4.814   0.806   7.825 -0.2646  0.1475 -0.7103
14135SOL    HW243847   4.880   0.935   7.870  0.1603 -0.3779  0.1975
14136SOL     OW43848   4.308   1.444   9.008  0.2705 -0.5017  0.2506
14136SOL    HW143849   4.270   1.426   8.922 -1.3278 -0.6160  0.9274
14136SOL    HW243850   4.275   1.373   9.063  1.4131 -0.5268  0.9168
14137SOL     OW43851   5.678   2.000   6.066  0.7915 -0.2469 -0.4599
14137SOL    HW143852   5.756   1.996   6.121  0.5826  1.1246 -0.0086
14137SOL    HW243853   5.625   2.070   6.105  2.0313  3.1415 -4.1043
14138SOL     OW43854   2.679   7.889   6.368 -0.3941 -0.0367 -0.5591
14138SOL    HW143855   2.684   7.795   6.351 -1.2288 -0.0246 -0.9370
14138SOL    HW243856   2.732   7.902   6.446 -0.1947 -0.8095 -0.5555
14139SOL     OW43857   4.542   1.864   0.370 -0.6825 -0.5562 -0.0036
14139SOL    HW143858   4.539   1.917   0.290  0.2753 -0.9598 -0.3263
14139SOL    HW243859   4.464   1.889   0.419 -1.5316 -0.6191 -1.2683
14140SOL     OW43860   2.360   5.948   2.866 -0.0301 -0.4146 -0.0596
14140SOL    HW143861   2.426   6.000   2.821 -0.7643  1.4558  0.9038
14140SOL    HW243862   2.327   6.006   2.935 -1.0179 -2.1294  0.9748
14141SOL     OW43863   6.094   1.106   6.505  0.1126 -0.2086 -0.5201
14141SOL    HW143864   6.056   1.093   6.591  0.9148 -0.1243 -0.1443
14141SOL    HW243865   6.020   1.129   6.449 -0.1673  1.5558  0.5263
14142SOL     OW43866   6.232   4.992   1.115  0.5815  0.1126 -0.3774
14142SOL    HW143867   6.137   4.991   1.107  0.2311  3.2434  1.4417
14142SOL    HW243868   6.251   4.927   1.182 -0.2617 -0.5008 -0.7142
14143SOL     OW43869   7.950   7.235  11.032  0.3988  0.0536 -0.1031
14143SOL    HW143870   7.879   7.181  10.997  0.4325 -1.1223  1.5214
14143SOL    HW243871   8.025   7.216  10.976  0.5191 -1.9653  0.6565
14144SOL     OW43872   7.910   0.369   0.666  0.2707 -0.5929  0.4882
14144SOL    HW143873   7.965   0.425   0.611 -0.8595 -1.4605 -1.6522
14144SOL    HW243874   7.862   0.429   0.722 -0.5103  0.5872 -1.3706
14145SOL     OW43875   6.526   4.869   9.772  0.6963 -0.1606 -0.6304
14145SOL    HW143876   6.546   4.886   9.680 -2.8843 -0.4455 -1.5918
14145SOL    HW243877   6.464   4.796   9.769 -3.6625  3.0761  1.4779
14146SOL     OW43878   6.072   6.596   3.715  0.1754 -0.5943 -0.1238
14146SOL    HW143879   6.075   6.655   3.639 -0.8180  1.1357  1.1199
14146SOL    HW243880   5.985   6.610   3.753  0.3218 -2.0928  0.8503
14147SOL     OW43881   0.930   6.686   9.116 -0.2398  0.8941 -0.4077
14147SOL    HW143882   1.012   6.670   9.069  0.0958  2.5736 -0.4550
14147SOL    HW243883   0.862   6.665   9.051  0.1708  0.7095 -0.7875
14148SOL     OW43884   5.713   4.916  12.315 -0.2317  0.0966 -0.2826
14148SOL    HW143885   5.688   4.866  12.393 -0.0624 -0.2288 -0.4358
14148SOL    HW243886   5.783   4.864  12.275  0.1907  0.6343 -0.2549
14149SOL     OW43887   2.840   2.527  10.772  0.4812  0.1287  0.4758
14149SOL    HW143888   2.796   2.525  10.687  0.4332 -1.0592  0.5189
14149SOL    HW243889   2.908   2.594  10.762 -0.1443  0.6821 -0.1774
14150SOL     OW43890   2.116   4.211   4.265 -0.0215  0.4534 -0.0118
14150SOL    HW143891   2.026   4.186   4.242 -0.9161  2.9592  0.4620
14150SOL    HW243892   2.106   4.268   4.342  1.9692  0.8351  0.0148
14151SOL     OW43893   2.299   0.116   3.122 -0.3033  0.1919 -0.3852
14151SOL    HW143894   2.357   0.073   3.060 -0.5871 -1.0875  0.1932
14151SOL    HW243895   2.217   0.067   3.117 -0.9215  1.1730 -0.2683
14152SOL     OW43896   0.209   2.945   6.783  0.4560 -0.2044  0.1272
14152SOL    HW143897   0.225   2.900   6.866  0.9002  1.4026  0.9499
14152SOL    HW243898   0.165   2.880   6.729  0.7249 -1.4926  1.3962
14153SOL     OW43899   0.272   1.102   7.403 -0.5830  0.5362 -0.3425
14153SOL    HW143900   0.200   1.048   7.368 -0.7180 -0.6563  1.6499
14153SOL    HW243901   0.230   1.185   7.425 -0.7946  0.7760 -1.5708
14154SOL     OW43902   4.029   1.658  12.199  0.0185  0.3332  0.2013
14154SOL    HW143903   3.965   1.624  12.135 -2.5255  1.7190  1.8411
14154SOL    HW243904   4.103   1.598  12.193 -2.5004 -3.0613  0.0329
14155SOL     OW43905   2.560   2.527   0.803  0.3596  0.2490 -0.0551
14155SOL    HW143906   2.518   2.568   0.878  0.8837  1.4096 -0.3681
14155SOL    HW243907   2.508   2.556   0.728  0.5475  0.0783 -0.2520
14156SOL     OW43908   3.896   6.994   3.977 -0.0459  0.3249 -0.5057
14156SOL    HW143909   3.884   7.088   3.992  0.7775  0.8174 -2.5744
14156SOL    HW243910   3.953   6.966   4.049  0.0670  1.5096 -0.1046
14157SOL     OW43911   4.162   0.529   5.070  0.2621 -0.2258 -0.0593
14157SOL    HW143912   4.251   0.564   5.061 -0.7739  2.1863 -2.8765
14157SOL    HW243913   4.139   0.501   4.981 -2.7167  1.9440 -0.1280
14158SOL     OW43914   5.299   5.662   5.861 -0.6189  0.9530  0.2097
14158SOL    HW143915   5.379   5.634   5.817 -0.1442 -0.7388  1.9999
14158SOL    HW243916   5.256   5.720   5.798  0.7416 -0.1258 -1.8296
14159SOL     OW43917   5.691   1.724   9.280  0.4839  0.3419  0.3352
14159SOL    HW143918   5.610   1.673   9.292  0.3540  0.0145 -1.6626
14159SOL    HW243919   5.761   1.659   9.282  0.5476  0.4098  0.2917
14160SOL     OW43920   6.837   1.250  10.468 -0.0971  0.1220  0.4537
14160SOL    HW143921   6.882   1.166  10.478  0.6217  0.3949 -0.3225
14160SOL    HW243922   6.902   1.315  10.496 -0.4441  0.4533  0.4945
14161SOL     OW43923   1.012   5.963  12.308  0.4059  0.1157 -0.2526
14161SOL    HW143924   0.965   5.880  12.312  2.5586 -1.2458 -1.1230
14161SOL    HW243925   1.074   5.951  12.236 -0.7637  3.3773 -1.9632
14162SOL     OW43926   2.323   4.796   7.777 -0.1090  0.2632  0.2199
14162SOL    HW143927   2.255   4.854   7.813  0.7566  0.9944  0.7235
14162SOL    HW243928   2.330   4.821   7.685 -0.1548  0.5478  0.2923
14163SOL     OW43929   1.710   4.217   7.024 -0.4814 -0.2000  0.1252
14163SOL    HW143930   1.638   4.168   6.983 -1.1127 -0.3015  1.3005
14163SOL    HW243931   1.782   4.155   7.029  0.1584  0.2851 -2.2521
14164SOL     OW43932   3.589   7.345   3.551  0.3373  0.0782  0.3991
14164SOL    HW143933   3.662   7.379   3.498 -1.0368  1.3478 -0.7648
14164SOL    HW243934   3.521   7.411   3.543 -0.8018 -0.8558  1.8516
14165SOL     OW43935   6.545   7.120  11.518  0.1606 -0.4983  0.2104
14165SOL    HW143936   6.605   7.163  11.579 -0.0792 -1.2887  1.0294
14165SOL    HW243937   6.480   7.187  11.497 -1.0934 -0.8220  2.6675
14166SOL     OW43938   4.454   3.696   5.756  0.1926  0.1074  0.4740
14166SOL    HW143939   4.513   3.621   5.743  0.2351  0.2336 -0.0838
14166SOL    HW243940   4.511   3.764   5.792  0.3576  0.1820  0.0739
14167SOL     OW43941   0.215   2.178   5.660  0.3544 -0.0693 -0.5220
14167SOL    HW143942   0.130   2.142   5.633 -0.2837  0.8247  0.2408
14167SOL    HW243943   0.279   2.127   5.610 -0.4419 -2.8302  1.0281
14168SOL     OW43944   7.633   5.009  11.859 -0.3680 -0.3464  0.1272
14168SOL    HW143945   7.670   5.087  11.817 -2.2294  0.7069  0.2861
14168SOL    HW243946   7.547   5.038  11.889  0.0997 -1.6049  2.9703
14169SOL     OW43947   2.905   6.041   6.843 -0.4192  0.6145 -1.1512
14169SOL    HW143948   2.894   5.953   6.809 -2.6891  1.1140 -1.8876
14169SOL    HW243949   2.836   6.051   6.909  1.1279  1.1696  0.4925
14170SOL     OW43950   5.692   3.325   2.740 -0.6359  0.0866 -0.0603
14170SOL    HW143951   5.631   3.304   2.669 -1.7791  0.5281  0.7644
14170SOL    HW243952   5.771   3.354   2.695  0.2923 -3.7535 -1.2272
14171SOL     OW43953   6.592   3.949   8.272 -0.2796  0.0038  0.2453
14171SOL    HW143954   6.514   4.000   8.295 -1.4265 -0.9916 -1.2056
14171SOL    HW243955   6.598   3.881   8.339  1.8278  2.4312  2.7778
14172SOL     OW43956   4.700   6.571   4.643 -0.4798 -0.4206 -0.2927
14172SOL    HW143957   4.620   6.533   4.678 -1.1103  0.9558 -0.1573
14172SOL    HW243958   4.724   6.639   4.707  0.0701  0.0378 -0.9732
14173SOL     OW43959   2.846   3.581   9.591  0.5596 -0.2382 -0.2361
14173SOL    HW143960   2.764   3.609   9.633  0.3018 -0.9732 -0.2323
14173SOL    HW243961   2.914   3.601   9.655  0.3532  0.1035 -0.1172
14174SOL     OW43962   2.465   3.052   8.682 -0.5682  0.2704  0.6697
14174SOL    HW143963   2.460   3.075   8.589 -0.0906  0.3192  0.6540
14174SOL    HW243964   2.415   3.121   8.726  0.8707  1.3888  0.6250
14175SOL     OW43965   7.675   5.473  10.451  0.2488 -0.3308 -0.1062
14175SOL    HW143966   7.710   5.560  10.473  1.1406 -0.2974 -1.5002
14175SOL    HW243967   7.753   5.420  10.432 -0.3418 -1.0125 -0.6902
14176SOL     OW43968   4.617   4.737   2.831  0.3138  0.2003  0.3046
14176SOL    HW143969   4.567   4.762   2.754 -0.9821 -0.8793  0.7602
14176SOL    HW243970   4.700   4.703   2.796 -0.3472 -0.4902 -0.6494
14177SOL     OW43971   5.341   7.184  12.007 -0.0115 -0.8985 -0.6044
14177SOL    HW143972   5.398   7.238  11.952 -0.0411 -0.7148 -0.4553
14177SOL    HW243973   5.347   7.223  12.094 -3.3598  1.6025 -1.2753
14178SOL     OW43974   7.099   3.048   4.644 -0.1839  0.0422 -0.4227
14178SOL    HW143975   7.130   3.003   4.565  1.5324  0.1779  0.1375
14178SOL    HW243976   7.177   3.061   4.697 -1.3095 -0.1803  1.3962
14179SOL     OW43977   6.278   2.021  11.506 -0.2860  0.5488  0.4865
14179SOL    HW143978   6.236   2.107  11.499 -0.7222  0.4201  1.3682
14179SOL    HW243979   6.208   1.963  11.538 -0.1183 -0.2347 -0.5127
14180SOL     OW43980   3.601   1.534   3.690 -0.0541  1.1038 -0.3863
14180SOL    HW143981   3.682   1.537   3.639 -0.0816 -0.1243 -0.5369
14180SOL    HW243982   3.550   1.608   3.659  1.5579  2.7227  0.6657
14181SOL     OW43983   2.804   5.369   6.933 -0.0865  0.1019  0.1708
14181SOL    HW143984   2.736   5.405   6.875  1.0353 -0.9901 -1.9285
14181SOL    HW243985   2.774   5.280   6.954  0.2958 -0.0886 -0.0802
14182SOL     OW43986   1.417   4.053   0.020 -0.2536 -0.0552  0.0272
14182SOL    HW143987   1.413   3.982   0.084 -1.7277  0.9212  1.1150
14182SOL    HW243988   1.450   4.128   0.070 -0.9226  0.5961 -0.4779
14183SOL     OW43989   0.578   4.407  10.083  0.0300 -0.4464 -0.5437
14183SOL    HW143990   0.531   4.471  10.135  0.7884 -0.1952 -0.1569
14183SOL    HW243991   0.669   4.438  10.081  0.0769 -0.5862 -1.7929
14184SOL     OW43992   1.107   4.019   8.350  0.0338 -0.0235 -0.5822
14184SOL    HW143993   1.189   3.982   8.386  0.0526  1.3670  0.9162
14184SOL    HW243994   1.129   4.110   8.330 -1.2532  0.5196  0.3425
14185SOL     OW43995   6.505   7.519   2.655  0.5672 -0.4064 -0.3971
14185SOL    HW143996   6.455   7.459   2.599  0.1126 -0.4827  0.0865
14185SOL    HW243997   6.495   7.483   2.743 -1.4949  1.5070  0.2545
14186SOL     OW43998   3.166   6.995   8.565 -0.0632  0.5312  0.6111
14186SOL    HW143999   3.080   7.036   8.572 -1.6454 -2.4521  0.4186
14186SOL    HW244000   3.212   7.046   8.498 -2.3178  1.2472 -0.4734
14187SOL     OW44001   7.775   7.272   1.109 -0.1843  0.1103  0.2358
14187SOL    HW144002   7.732   7.195   1.072  1.1126  0.0747 -1.2867
14187SOL    HW244003   7.866   7.264   1.082  0.9725 -0.0005  3.6525
14188SOL     OW44004   5.805   6.447  11.105  0.0647 -0.1144 -0.3737
14188SOL    HW144005   5.772   6.385  11.040 -2.3097 -0.4559  1.0432
14188SOL    HW244006   5.878   6.403  11.147 -1.8806 -2.2856  0.9570
14189SOL     OW44007   0.843   5.486   8.550 -0.1795  0.3464  0.3841
14189SOL    HW144008   0.886   5.561   8.590 -2.3807  1.9539 -0.0450
14189SOL    HW244009   0.909   5.417   8.549  1.2053  1.5008  2.9815
14190SOL     OW44010   5.002   0.358   5.565  0.7908  0.2693  0.3965
14190SOL    HW144011   4.914   0.384   5.592  0.5343  0.8821 -0.9269
14190SOL    HW244012   5.008   0.265   5.588 -0.6347 -0.0713 -0.5081
14191SOL     OW44013   2.419   7.052   5.075 -0.3352 -0.5134  0.1124
14191SOL    HW144014   2.476   6.977   5.056 -0.3728 -0.4172 -0.3998
14191SOL    HW244015   2.429   7.109   4.999 -0.4243 -0.0690  0.4311
14192SOL     OW44016   2.435   6.012   5.352  0.1018  1.1435  0.6650
14192SOL    HW144017   2.476   5.997   5.436 -0.2885  0.8801  0.8098
14192SOL    HW244018   2.507   6.010   5.289  0.5704  2.5049  1.1087
14193SOL     OW44019   4.250   6.475   7.569  0.3076  0.4512  0.1598
14193SOL    HW144020   4.188   6.494   7.499  0.4979  1.0034  0.1365
14193SOL    HW244021   4.201   6.493   7.650  0.9985  2.7350  0.1180
14194SOL     OW44022   3.424   5.937   7.830  0.1362  0.1612  0.3155
14194SOL    HW144023   3.328   5.935   7.832  0.1178 -2.8380  1.2162
14194SOL    HW244024   3.450   5.938   7.922  0.8861 -1.3810  0.1547
14195SOL     OW44025   5.928   0.268  12.328 -0.2875 -0.4895 -0.8122
14195SOL    HW144026   5.942   0.363  12.321 -1.5396 -0.3579 -1.9051
14195SOL    HW244027   5.927   0.237  12.238 -2.6041 -1.1112 -0.6202
14196SOL     OW44028   5.636   2.498  10.644  0.6180 -0.2295  0.3192
14196SOL    HW144029   5.599   2.435  10.582  1.3170  0.8408 -1.2270
14196SOL    HW244030   5.721   2.462  10.667  0.6609 -0.2621  0.1048
14197SOL     OW44031   0.243   1.552   6.783  0.2160 -0.0245 -0.2012
14197SOL    HW144032   0.172   1.599   6.826  1.5231 -0.2300  2.3651
14197SOL    HW244033   0.208   1.464   6.769 -0.6819  0.4146 -0.8705
14198SOL     OW44034   7.428   2.252   0.661  0.6279 -0.3896 -0.6214
14198SOL    HW144035   7.382   2.217   0.585 -0.0569  0.8071 -0.7866
14198SOL    HW244036   7.422   2.347   0.651  0.1906 -0.1950  1.1088
14199SOL     OW44037   7.940   7.131   6.061 -0.6321  0.0812  0.1558
14199SOL    HW144038   7.916   7.220   6.085  0.0062  0.1727  0.4638
14199SOL    HW244039   7.864   7.078   6.087 -0.6673  0.4208  0.7612
14200SOL     OW44040   2.689   2.960   8.821 -0.0900  0.3456  0.2812
14200SOL    HW144041   2.658   2.872   8.842  1.3405 -0.2878 -0.1431
14200SOL    HW244042   2.624   2.994   8.760  1.3262 -2.0466 -2.9237
14201SOL     OW44043   0.187   2.489  11.867  0.0503 -0.0542  0.3444
14201SOL    HW144044   0.145   2.537  11.796  0.3034  0.1795  0.3524
14201SOL    HW244045   0.122   2.491  11.938 -0.2623 -0.4140  0.0760
14202SOL     OW44046   7.246   6.202   5.383  0.3862  0.4510 -0.3018
14202SOL    HW144047   7.295   6.133   5.336  3.8610  0.8947  2.2514
14202SOL    HW244048   7.212   6.158   5.460 -1.1143  0.7469 -0.7728
14203SOL     OW44049   7.766   5.334   6.060  0.2829  0.0574  0.0721
14203SOL    HW144050   7.697   5.397   6.038 -0.2221  0.0435  1.5120
14203SOL    HW244051   7.745   5.256   6.008 -0.2111  0.4073 -0.2550
14204SOL     OW44052   5.870   4.809   4.837 -0.0544  0.2834 -0.3733
14204SOL    HW144053   5.858   4.767   4.922  0.5107  2.6107  0.9473
14204SOL    HW244054   5.919   4.745   4.785 -1.0490 -1.4812  0.7519
14205SOL     OW44055   4.652   2.647   2.943 -0.0889  0.6823 -0.0553
14205SOL    HW144056   4.651   2.622   2.850 -4.2576  0.1053 -0.0423
14205SOL    HW244057   4.597   2.726   2.947 -0.7969  0.1406  2.0086
14206SOL     OW44058   6.128   0.039  12.267 -0.0097  0.3700 -0.0714
14206SOL    HW144059   6.082   0.099  12.326  0.6207  0.4444  0.3544
14206SOL    HW244060   6.148   0.093  12.190  0.4993  0.6927  0.2830
14207SOL     OW44061   2.878   6.101  11.889 -0.0389 -0.4636 -0.2272
14207SOL    HW144062   2.893   6.113  11.795  0.4967 -2.0004 -0.3600
14207SOL    HW244063   2.785   6.121  11.901  0.0817  0.5814 -0.9296
14208SOL     OW44064   2.930   4.485   7.348  0.7674 -0.2504  0.2273
14208SOL    HW144065   2.936   4.412   7.409 -1.2151 -0.4396  0.2742
14208SOL    HW244066   3.002   4.471   7.286  0.6334 -2.0479  0.4337
14209SOL     OW44067   7.537   7.007   3.437 -0.6843 -0.0213 -0.4080
14209SOL    HW144068   7.570   7.079   3.384 -1.1562  1.3638  1.1145
14209SOL    HW244069   7.604   6.939   3.430 -1.0235 -0.1761 -3.2506
14210SOL     OW44070   4.003   4.168  11.747 -0.7282 -0.2087  0.2617
14210SOL    HW144071   4.049   4.250  11.762 -0.9942  0.3391 -1.6092
14210SOL    HW244072   3.964   4.146  11.831  0.6456  0.7473  1.1930
14211SOL     OW44073   2.989   2.105   3.718  0.0332  0.0210 -0.2754
14211SOL    HW144074   2.899   2.086   3.743  0.0484 -1.2287 -1.0594
14211SOL    HW244075   3.036   2.114   3.801 -0.5339 -0.7591  0.1393
14212SOL     OW44076   5.756   6.456  10.692 -0.1360 -0.8315 -0.3053
14212SOL    HW144077   5.770   6.507  10.612  0.6387 -1.7925 -0.8155
14212SOL    HW244078   5.670   6.483  10.724 -0.4118 -0.3597 -1.4116
14213SOL     OW44079   7.578   6.733  11.809 -0.5140 -0.2057 -0.7346
14213SOL    HW144080   7.501   6.755  11.861 -0.7615 -2.8993  0.2203
14213SOL    HW244081   7.645   6.796  11.836 -1.0790 -0.6162  1.8394
14214SOL     OW44082   0.538   7.363   8.672 -0.3532  0.9287 -0.1286
14214SOL    HW144083   0.517   7.319   8.590  0.3390 -0.8531  0.6000
14214SOL    HW244084   0.588   7.440   8.645  1.0328 -0.3259 -1.3567
14215SOL     OW44085   6.914   2.954   9.142 -0.0362  0.0200  0.2753
14215SOL    HW144086   6.950   3.037   9.110  0.6763  0.3239  1.7940
14215SOL    HW244087   6.942   2.949   9.233  0.2281 -2.0773  0.1224
14216SOL     OW44088   2.473   7.492  10.712  0.1609 -0.0958 -1.0355
14216SOL    HW144089   2.546   7.430  10.706 -0.9406 -1.3366 -2.3682
14216SOL    HW244090   2.492   7.559  10.647  1.0755  0.7076  0.0201
14217SOL     OW44091   5.198   1.772   7.888 -1.3337 -0.2333  0.6933
14217SOL    HW144092   5.110   1.777   7.852 -1.0380 -0.0875 -0.0261
14217SOL    HW244093   5.242   1.851   7.857 -0.1426 -1.5447 -1.1980
14218SOL     OW44094   4.314   7.048   1.864  0.5406 -0.5795  0.5451
14218SOL    HW144095   4.292   6.999   1.944 -1.0270 -0.9565 -0.0805
14218SOL    HW244096   4.337   7.136   1.896 -3.7843  0.5121  1.2811
14219SOL     OW44097   6.550   1.944  10.010  0.0166  0.2245  0.6365
14219SOL    HW144098   6.645   1.955  10.007  0.0603 -0.0595  0.8266
14219SOL    HW244099   6.538   1.852  10.033 -0.2748  0.6496  2.3501
14220SOL     OW44100   4.685   3.546   0.569 -0.3530 -0.3673 -0.0842
14220SOL    HW144101   4.726   3.530   0.654  1.7698 -1.5894 -1.2603
14220SOL    HW244102   4.699   3.639   0.553 -0.2767 -0.2413  0.6456
14221SOL     OW44103   0.277   2.215  11.881  0.3662  0.1176  0.2393
14221SOL    HW144104   0.262   2.309  11.875  0.7885  0.2191  0.7376
14221SOL    HW244105   0.189   2.177  11.879  0.2361  0.4274 -1.2456
14222SOL     OW44106   6.392   7.574   9.769 -0.1586  0.4667 -0.4882
14222SOL    HW144107   6.412   7.521   9.846 -0.4508 -0.6620 -1.1662
14222SOL    HW244108   6.302   7.605   9.785 -1.1356 -1.6955 -1.3814
14223SOL     OW44109   0.660   5.975  11.711  0.0557  0.3895  0.0414
14223SOL    HW144110   0.678   5.999  11.620  1.3022 -0.8780 -0.0662
14223SOL    HW244111   0.599   6.043  11.741 -0.0185  1.0982 -1.5816
14224SOL     OW44112   1.273   3.754  12.227 -0.5909  0.3284  0.2550
14224SOL    HW144113   1.259   3.709  12.310 -4.4895  0.6985 -0.0015
14224SOL    HW244114   1.324   3.693  12.175 -0.7510 -1.2900  1.8717
14225SOL     OW44115   7.245   0.422   6.313 -0.1533  0.4493 -0.0474
14225SOL    HW144116   7.209   0.510   6.318  1.5955  1.1701  0.4557
14225SOL    HW244117   7.339   0.433   6.324  0.2959 -1.3352 -1.5429
14226SOL     OW44118   2.817   0.328  10.429  0.8210  0.5445  0.0458
14226SOL    HW144119   2.903   0.369  10.420  0.7681  0.4060 -1.3825
14226SOL    HW244120   2.808   0.310  10.523  1.7839  1.7502  0.3881
14227SOL     OW44121   0.476   3.664   8.042  0.6950 -0.4632 -0.0319
14227SOL    HW144122   0.428   3.604   7.985  1.7691  0.2507 -1.7943
14227SOL    HW244123   0.522   3.607   8.103 -0.9246 -1.2313  0.5394
14228SOL     OW44124   0.783   6.792   6.389 -0.4521 -0.3249 -0.0609
14228SOL    HW144125   0.859   6.846   6.410 -0.3765 -1.6634  4.0147
14228SOL    HW244126   0.711   6.854   6.378  0.5144  0.7757 -0.2549
14229SOL     OW44127   3.688   0.590   9.866 -0.0996 -0.4553 -0.1480
14229SOL    HW144128   3.776   0.597   9.830  0.7653  0.6750  1.9545
14229SOL    HW244129   3.675   0.674   9.912 -1.6606 -1.2009  0.8532
14230SOL     OW44130   4.461   6.520   6.643 -0.6190 -0.1269 -0.3612
14230SOL    HW144131   4.462   6.461   6.719 -0.6164 -2.1582 -1.8594
14230SOL    HW244132   4.380   6.570   6.653 -0.6830 -0.4500  0.9018
14231SOL     OW44133   7.039   3.622   7.975 -0.6653  0.2211 -0.0875
14231SOL    HW144134   7.013   3.593   7.888 -0.3903  0.4047 -0.2350
14231SOL    HW244135   7.110   3.562   7.999 -0.3323  0.5430 -0.2469
14232SOL     OW44136   6.390   3.161   7.228  0.0444  0.4907  0.3335
14232SOL    HW144137   6.451   3.206   7.170  0.3497 -0.4036 -0.0651
14232SOL    HW244138   6.316   3.137   7.171 -0.4909  1.1985  0.7198
14233SOL     OW44139   4.660   5.388  10.193 -0.7154 -0.5089  0.0244
14233SOL    HW144140   4.701   5.355  10.273 -1.4572 -2.0473 -0.1960
14233SOL    HW244141   4.571   5.412  10.221 -0.8474 -0.6803 -0.2495
14234SOL     OW44142   4.778   1.379   2.619  0.5267  0.6941 -0.0339
14234SOL    HW144143   4.812   1.320   2.686 -0.0262  1.1398  0.6484
14234SOL    HW244144   4.743   1.321   2.552  2.2813  0.2248 -0.5963
14235SOL     OW44145   4.333   5.799   8.398 -0.4248 -0.1031  0.1592
14235SOL    HW144146   4.353   5.858   8.325 -0.0863  0.2323  0.5229
14235SOL    HW244147   4.264   5.843   8.447  0.1607  0.2192  0.7018
14236SOL     OW44148   2.562   0.936  11.090 -0.1048  0.4256 -0.0796
14236SOL    HW144149   2.477   0.899  11.114 -0.0830 -0.1527 -0.8529
14236SOL    HW244150   2.626   0.873  11.122 -0.0313  0.1850 -0.6849
14237SOL     OW44151   1.837   2.357   6.467 -0.3723  0.2607  0.5876
14237SOL    HW144152   1.785   2.314   6.399 -0.3240 -0.4275  0.9686
14237SOL    HW244153   1.819   2.450   6.457 -0.0585  0.2138 -0.6272
14238SOL     OW44154   3.892   3.278   8.098 -0.5447  0.3003  0.3222
14238SOL    HW144155   3.945   3.214   8.146 -0.1943  0.6087  0.3445
14238SOL    HW244156   3.801   3.252   8.116 -0.4138  0.3277  1.0297
14239SOL     OW44157   1.178   7.367   8.738 -0.1411  0.0162  0.0550
14239SOL    HW144158   1.198   7.276   8.759  0.1560  0.1494  0.3663
14239SOL    HW244159   1.169   7.369   8.643 -1.6855 -0.6412  0.1503
14240SOL     OW44160   1.312   7.051   5.985 -0.1073  0.2431  0.4541
14240SOL    HW144161   1.305   6.998   6.064  0.0317  1.7509  1.5161
14240SOL    HW244162   1.222   7.059   5.953 -0.2911  0.3928  0.9980
14241SOL     OW44163   2.681   5.384   3.842  0.0788  0.1458  0.2321
14241SOL    HW144164   2.744   5.313   3.856  0.9216  0.8766  0.2466
14241SOL    HW244165   2.654   5.409   3.930  1.0865  0.9722  0.3220
14242SOL     OW44166   0.246   7.638   0.561  0.0316 -1.0624  0.2892
14242SOL    HW144167   0.302   7.715   0.568 -0.0769 -1.0616  1.3083
14242SOL    HW244168   0.246   7.617   0.468 -0.5467  0.6219 -0.1287
14243SOL     OW44169   0.127   7.341  11.339 -0.2237 -0.2852  0.1001
14243SOL    HW144170   0.080   7.288  11.404 -0.3903 -1.0506 -0.6336
14243SOL    HW244171   0.059   7.367  11.276  0.0771 -0.2012 -0.1889
14244SOL     OW44172   0.100   0.223   1.408  0.4431 -0.0348 -1.2241
14244SOL    HW144173   0.142   0.241   1.492 -0.6396 -0.9239 -0.4511
14244SOL    HW244174   0.120   0.300   1.354  0.7212  0.8088  0.0263
14245SOL     OW44175   2.140   5.045   2.876  0.1941 -0.4490 -0.4050
14245SOL    HW144176   2.191   5.106   2.930 -0.9292  0.0659  0.1149
14245SOL    HW244177   2.089   5.102   2.818  0.5074 -0.9674 -1.1963
14246SOL     OW44178   6.276   4.472   0.702 -0.1176 -0.1983  0.0893
14246SOL    HW144179   6.252   4.564   0.712  1.5260  0.4263 -1.3084
14246SOL    HW244180   6.333   4.470   0.626  0.5768 -2.2616  0.5986
14247SOL     OW44181   4.561   2.824   8.905 -0.2471  0.6986  0.3350
14247SOL    HW144182   4.470   2.814   8.878 -0.1621 -0.7787  0.5370
14247SOL    HW244183   4.575   2.756   8.971  0.7326  1.5500  1.0460
14248SOL     OW44184   7.611   2.014   4.529 -0.3748  0.0269 -0.0816
14248SOL    HW144185   7.539   1.988   4.472 -1.3078  0.1272  1.0174
14248SOL    HW244186   7.619   2.109   4.516  0.1148 -0.1060 -0.8094
14249SOL     OW44187   2.483   6.797   7.621 -0.7518 -0.1047 -0.3876
14249SOL    HW144188   2.420   6.765   7.556 -1.9986  1.0376  0.2199
14249SOL    HW244189   2.517   6.718   7.662 -1.6953 -0.7505 -0.8194
14250SOL     OW44190   0.637   4.172   9.607 -0.6667 -0.1394  0.1891
14250SOL    HW144191   0.549   4.136   9.621 -0.6314 -0.8709 -1.2992
14250SOL    HW244192   0.675   4.178   9.695 -2.4320  0.8353  0.9494
14251SOL     OW44193   4.350   4.715   1.963 -0.0315  0.0683  0.5212
14251SOL    HW144194   4.283   4.752   2.020 -0.4214  0.8967 -0.4540
14251SOL    HW244195   4.396   4.791   1.927  0.2953 -0.4411 -0.1605
14252SOL     OW44196   0.784   1.628  10.935 -0.1206 -0.0386  0.1479
14252SOL    HW144197   0.844   1.554  10.927 -1.5306 -1.2317  0.1206
14252SOL    HW244198   0.746   1.618  11.023 -1.0412  0.0628 -0.2266
14253SOL     OW44199   4.170   7.302   4.856  0.0989 -0.0582  0.6682
14253SOL    HW144200   4.229   7.251   4.911 -0.4741 -0.8298  0.5824
14253SOL    HW244201   4.190   7.393   4.877  2.8148 -0.1984 -0.8728
14254SOL     OW44202   5.989   1.392   8.424  0.1294 -0.3891  0.3608
14254SOL    HW144203   5.944   1.309   8.440 -0.3695  0.0424  1.2896
14254SOL    HW244204   6.081   1.368   8.411  0.0206 -1.0647  0.8214
14255SOL     OW44205   2.790   5.753   5.705  0.1799  0.0015  0.2299
14255SOL    HW144206   2.744   5.832   5.732 -0.4059  0.2688 -1.3888
14255SOL    HW244207   2.882   5.778   5.705  0.1112  0.2709  1.0024
14256SOL     OW44208   0.775   1.630   6.857  0.3647 -0.6694 -0.1907
14256SOL    HW144209   0.721   1.673   6.923  1.5225  0.7226 -0.0943
14256SOL    HW244210   0.801   1.547   6.896 -1.3336 -1.1941 -0.0865
14257SOL     OW44211   0.151   7.037   9.829 -0.1208 -0.2854  0.1273
14257SOL    HW144212   0.193   6.952   9.845  1.3806 -0.1458 -2.4242
14257SOL    HW244213   0.061   7.015   9.808  0.2050 -1.2718 -0.3291
14258SOL     OW44214   5.794   5.360   9.315  0.0300  0.4662 -0.5062
14258SOL    HW144215   5.754   5.310   9.244  0.6433 -1.0509  0.1849
14258SOL    HW244216   5.855   5.420   9.270 -2.5731  2.5548 -1.5472
14259SOL     OW44217   1.456   7.797   5.535 -0.0934 -0.5099 -0.2592
14259SOL    HW144218   1.476   7.837   5.619  1.6560  2.8087 -2.0851
14259SOL    HW244219   1.460   7.702   5.552 -0.0343  0.0034  3.3473
14260SOL     OW44220   6.445   4.306   9.373  0.3251 -0.0913  0.1410
14260SOL    HW144221   6.408   4.280   9.289 -0.1826 -1.4389  0.7578
14260SOL    HW244222   6.448   4.225   9.425  1.7962  0.4627  0.9927
14261SOL     OW44223   3.958   0.424   6.717  0.6609 -0.4254 -0.1117
14261SOL    HW144224   3.906   0.456   6.643 -0.6876  0.8482  1.3051
14261SOL    HW244225   3.962   0.498   6.777  0.6147 -1.7797  1.6480
14262SOL     OW44226   2.053   3.964   8.831 -0.1048  0.3228 -0.4653
14262SOL    HW144227   2.032   3.881   8.875 -0.7642  0.9218  0.3774
14262SOL    HW244228   1.983   4.023   8.856 -0.5574  0.6840 -2.4073
14263SOL     OW44229   1.479   0.854   4.455 -0.0808  0.0885  0.3450
14263SOL    HW144230   1.386   0.848   4.476  0.0429  1.3067  1.4075
14263SOL    HW244231   1.490   0.800   4.378 -1.4150 -1.1869  1.0012
14264SOL     OW44232   6.812   7.679  10.964  0.2510 -0.2516 -0.1832
14264SOL    HW144233   6.863   7.754  10.994 -0.9162  0.0682  1.1237
14264SOL    HW244234   6.722   7.713  10.955 -0.0866 -1.2240 -0.6255
14265SOL     OW44235   4.681   4.675   4.195 -0.1836  0.4658 -0.0567
14265SOL    HW144236   4.590   4.682   4.165  0.1510  1.2576 -0.9216
14265SOL    HW244237   4.730   4.735   4.139  0.7487  0.6835  0.9601
14266SOL     OW44238   4.105   4.076   5.204  0.1154  0.3621  0.6762
14266SOL    HW144239   4.065   4.013   5.145 -0.7860  1.7612 -0.2832
14266SOL    HW244240   4.198   4.078   5.178 -0.3583  1.3347 -1.1152
14267SOL     OW44241   5.184   1.337   4.769  0.7784  0.8751  0.4729
14267SOL    HW144242   5.108   1.319   4.824  0.0926  2.1758 -0.0214
14267SOL    HW244243   5.159   1.304   4.683  0.9062  1.0337  0.3766
14268SOL     OW44244   0.662   4.778   4.798  0.2333 -0.1032  0.5762
14268SOL    HW144245   0.571   4.750   4.788  0.2491  0.0869 -0.1357
14268SOL    HW244246   0.711   4.697   4.811  0.0074 -0.2311  0.6312
14269SOL     OW44247   2.367   7.698   9.936 -0.5251 -0.7474 -0.2731
14269SOL    HW144248   2.393   7.723  10.024  1.5290 -0.6053 -0.8571
14269SOL    HW244249   2.301   7.629   9.949 -2.4036  1.2104  1.3173
14270SOL     OW44250   4.517   0.767   1.866  0.0604  0.1277 -0.2631
14270SOL    HW144251   4.594   0.781   1.811  0.7416  3.1763  1.2466
14270SOL    HW244252   4.444   0.802   1.814 -0.1860 -1.6550 -1.1965
14271SOL     OW44253   0.568   7.903  11.610  0.2864  0.4759  0.1196
14271SOL    HW144254   0.570   7.809  11.590  0.8416  0.9443 -2.3306
14271SOL    HW244255   0.493   7.913  11.667 -0.4948 -1.3109 -0.5062
14272SOL     OW44256   2.932   6.151  11.628 -0.1918 -0.5168 -0.1086
14272SOL    HW144257   2.846   6.193  11.624 -0.2197 -0.5754 -0.1181
14272SOL    HW244258   2.952   6.129  11.537  1.2355  2.3243 -0.5969
14273SOL     OW44259   0.608   3.631  10.317  0.8662  0.3115  0.0046
14273SOL    HW144260   0.600   3.538  10.339 -0.5524  0.5685  0.7004
14273SOL    HW244261   0.552   3.676  10.381 -2.7709  1.2381 -3.4080
14274SOL     OW44262   1.103   0.280  12.419  0.1368 -0.3063 -0.5407
14274SOL    HW144263   1.022   0.283  12.469  0.2470  0.2346 -0.3814
14274SOL    HW244264   1.148   0.361  12.442  1.2236 -1.1006  0.2028
14275SOL     OW44265   4.343   2.887   6.261  0.4969  0.3874  0.1369
14275SOL    HW144266   4.249   2.883   6.243  0.4047  0.0277  0.6780
14275SOL    HW244267   4.370   2.796   6.271  1.0962  0.4335 -0.9274
14276SOL     OW44268   4.459   5.822   2.784  0.2315  0.2011 -0.6361
14276SOL    HW144269   4.497   5.909   2.776  1.6297 -0.4115 -0.9045
14276SOL    HW244270   4.422   5.804   2.698  0.6635  0.2022 -0.8228
14277SOL     OW44271   4.875   6.487   3.295  0.6110 -0.4867 -0.4501
14277SOL    HW144272   4.807   6.532   3.345  0.7025 -0.2922 -0.5003
14277SOL    HW244273   4.956   6.532   3.318  0.8614 -1.3115  0.3221
14278SOL     OW44274   6.319   4.522   8.754 -0.5989 -0.1168  0.0370
14278SOL    HW144275   6.392   4.551   8.699 -0.1381  0.3857  0.8885
14278SOL    HW244276   6.251   4.497   8.692 -0.7358  2.0589 -0.7821
14279SOL     OW44277   4.106   3.912   0.463 -0.3443  0.8308 -0.2010
14279SOL    HW144278   4.151   3.944   0.541 -1.4065  2.8367 -0.3314
14279SOL    HW244279   4.174   3.869   0.411  0.0314 -2.4774  2.6938
14280SOL     OW44280   1.905   4.085   1.946  0.7465 -0.4444  0.3403
14280SOL    HW144281   1.901   4.054   2.036 -0.9208  1.0372  0.8207
14280SOL    HW244282   1.878   4.010   1.893  0.2446 -0.8614  1.1788
14281SOL     OW44283   1.139   0.451   9.398  0.2299  0.3315  0.3179
14281SOL    HW144284   1.101   0.474   9.483 -1.8036 -0.7323 -0.2405
14281SOL    HW244285   1.197   0.524   9.377  0.3304  0.8906  2.3443
14282SOL     OW44286   7.676   3.191   2.972  0.1510  0.2197 -0.1835
14282SOL    HW144287   7.678   3.202   3.067  0.6457 -0.2745 -0.1265
14282SOL    HW244288   7.737   3.119   2.956 -1.4968 -1.1410 -0.6674
14283SOL     OW44289   6.871   0.668   7.664  0.5246  0.0073  0.0697
14283SOL    HW144290   6.906   0.582   7.686  0.0821 -0.0304  0.6386
14283SOL    HW244291   6.862   0.713   7.749 -0.8684 -0.0096 -0.0460
14284SOL     OW44292   7.325   5.387   3.858 -0.0869  0.1239  0.3203
14284SOL    HW144293   7.291   5.424   3.777  0.6369  1.7445  0.7283
14284SOL    HW244294   7.419   5.376   3.842 -0.0613 -0.2622  0.6926
14285SOL     OW44295   7.852   5.732   5.422  0.4221  0.0844  0.1604
14285SOL    HW144296   7.871   5.750   5.330  1.6356 -0.7339  0.2246
14285SOL    HW244297   7.824   5.816   5.458 -1.5003  0.1287 -1.2716
14286SOL     OW44298   3.356   6.704   5.725  0.4452  0.2534  0.3398
14286SOL    HW144299   3.359   6.775   5.789  2.1847  2.6095 -2.1334
14286SOL    HW244300   3.435   6.716   5.672 -1.1111 -1.2362 -2.5505
14287SOL     OW44301   3.743   5.268   1.073 -0.5169 -0.0604  0.4163
14287SOL    HW144302   3.761   5.360   1.091 -1.1093  0.2573 -0.5369
14287SOL    HW244303   3.727   5.229   1.159 -2.9851  1.3077  0.6710
14288SOL     OW44304   1.589   5.797   9.129 -0.2451 -0.3007  0.4937
14288SOL    HW144305   1.541   5.848   9.064 -0.6507 -0.5018  0.6384
14288SOL    HW244306   1.526   5.734   9.163  0.5890 -1.7551 -0.5715
14289SOL     OW44307   3.086   2.500   8.679  0.2561  0.4048 -0.0861
14289SOL    HW144308   3.121   2.586   8.654  0.2570  1.0692  2.0109
14289SOL    HW244309   3.157   2.460   8.730  0.1306 -0.7255 -0.7843
14290SOL     OW44310   0.370   4.062  10.905  0.1876  0.2596  0.0710
14290SOL    HW144311   0.358   4.069  10.810  0.0421 -0.0308  0.0685
14290SOL    HW244312   0.412   4.145  10.930  2.1524 -0.4851 -0.5540
14291SOL     OW44313   6.679   7.553   3.646  0.3010  0.1204  0.3329
14291SOL    HW144314   6.605   7.600   3.685 -0.8647  0.8510 -2.5272
14291SOL    HW244315   6.640   7.496   3.580  2.2273 -0.2089 -0.5973
14292SOL     OW44316   5.027   7.660   7.420 -0.1180 -0.4997 -0.0146
14292SOL    HW144317   5.015   7.704   7.504  1.0129 -0.4188  0.1313
14292SOL    HW244318   5.121   7.667   7.403  0.0780 -2.6533 -0.0977
14293SOL     OW44319   2.373   2.960   1.618  0.2027  0.1551  0.2141
14293SOL    HW144320   2.308   3.029   1.601 -0.6286 -0.8083 -0.6728
14293SOL    HW244321   2.358   2.935   1.709 -0.7529 -0.1283 -0.0104
14294SOL     OW44322   5.101   7.758   0.471 -0.5170  0.4004  0.0982
14294SOL    HW144323   5.142   7.705   0.539 -1.3667 -0.9276 -0.3790
14294SOL    HW244324   5.136   7.846   0.484  1.4551 -0.3925  0.4971
14295SOL     OW44325   2.219   5.546   7.145 -0.7851  0.0221 -0.2972
14295SOL    HW144326   2.204   5.542   7.240 -0.6969 -2.2450 -0.3241
14295SOL    HW244327   2.282   5.618   7.134 -0.2356 -0.1474  1.4440
14296SOL     OW44328   2.641   3.681   3.206  0.7143  0.6393 -0.0130
14296SOL    HW144329   2.614   3.692   3.297 -0.4388  0.6293 -0.3395
14296SOL    HW244330   2.588   3.607   3.174 -0.8892  2.3097 -1.4339
14297SOL     OW44331   4.892   0.071   2.639 -0.1343  0.0393  0.2396
14297SOL    HW144332   4.982   0.080   2.670  0.5257 -1.1929 -1.2023
14297SOL    HW244333   4.888  -0.017   2.602 -1.6513  0.4494 -0.6421
14298SOL     OW44334   6.037   4.533   2.425 -0.3865 -0.4163  0.0397
14298SOL    HW144335   6.107   4.523   2.361  0.2264 -1.6039  0.8451
14298SOL    HW244336   5.967   4.578   2.378  0.5769  0.0053 -1.0368
14299SOL     OW44337   4.262   6.787   7.886  0.2105  0.4080  0.2959
14299SOL    HW144338   4.233   6.728   7.956 -0.4363  0.2256 -0.1181
14299SOL    HW244339   4.312   6.855   7.931  0.7364 -0.3067  0.8095
14300SOL     OW44340   3.912   1.844   0.958 -0.1332  0.1803 -0.1438
14300SOL    HW144341   3.876   1.820   0.873 -0.9792  0.0719  0.2324
14300SOL    HW244342   4.001   1.809   0.958  0.1970  0.9665 -1.3313
14301SOL     OW44343   5.227   7.027  12.307  0.0191  0.4320  0.9712
14301SOL    HW144344   5.224   6.959  12.374  3.7001 -0.9395 -0.0369
14301SOL    HW244345   5.256   6.983  12.228 -0.4490  2.6750 -0.5566
14302SOL     OW44346   4.824   5.697   7.576  0.2126  0.2274  0.4112
14302SOL    HW144347   4.736   5.727   7.598  0.6586  1.4754  0.6028
14302SOL    HW244348   4.842   5.628   7.640 -0.4144  0.3431  0.7253
14303SOL     OW44349   0.860   0.801  10.388  0.1801 -0.2004  0.2639
14303SOL    HW144350   0.909   0.782  10.308  1.1355 -0.4457  0.8934
14303SOL    HW244351   0.902   0.879  10.424 -1.2622  0.8915 -0.2868
14304SOL     OW44352   6.060   2.939   6.802  0.3649 -0.3423 -0.1688
14304SOL    HW144353   6.149   2.905   6.793  0.0507 -1.5103  0.9455
14304SOL    HW244354   6.037   2.923   6.893  0.0726  2.6058  0.3957
14305SOL     OW44355   6.981   7.663   9.652  0.2106 -0.2094 -0.3285
14305SOL    HW144356   6.908   7.704   9.605 -0.6774  2.1554  2.7896
14305SOL    HW244357   7.043   7.734   9.667  0.4184 -0.7983  2.0201
14306SOL     OW44358   1.291   6.588   5.069  0.1035  0.5874  0.0615
14306SOL    HW144359   1.381   6.620   5.069  0.2287  0.2989  1.4344
14306SOL    HW244360   1.245   6.645   5.131 -0.2425 -0.3184  0.6611
14307SOL     OW44361   3.907   7.542   0.534  0.3180  0.2884  0.4394
14307SOL    HW144362   3.956   7.591   0.469  0.3556  0.2717  0.4554
14307SOL    HW244363   3.817   7.542   0.502  0.1887  0.9614  0.7823
14308SOL     OW44364   7.773   1.896   5.392  0.9125 -0.1526 -0.0627
14308SOL    HW144365   7.758   1.869   5.301  0.8012 -1.0973  0.2325
14308SOL    HW244366   7.767   1.815   5.443  3.1438  0.0081  0.5507
14309SOL     OW44367   4.712   2.748   2.456  0.2712  0.1419  0.0368
14309SOL    HW144368   4.771   2.729   2.383  0.6309 -0.8166  0.5558
14309SOL    HW244369   4.629   2.770   2.415  0.3480 -0.8104 -0.6623
14310SOL     OW44370   4.043   5.637   5.194 -0.1627 -0.2813  0.0615
14310SOL    HW144371   4.105   5.582   5.241 -0.4706 -3.7459 -3.1132
14310SOL    HW244372   3.959   5.593   5.203 -0.9814  1.0685 -0.5554
14311SOL     OW44373   0.584   3.874   7.020 -0.0364  0.5113 -0.3380
14311SOL    HW144374   0.510   3.812   7.020  0.1089  0.3291 -0.9761
14311SOL    HW244375   0.543   3.960   7.007 -0.1653  0.4398 -0.4080
14312SOL     OW44376   5.136   1.509   9.940  0.1559 -0.1598 -0.0554
14312SOL    HW144377   5.196   1.583   9.938  2.2298 -1.7323  0.3136
14312SOL    HW244378   5.077   1.529  10.013  0.2245  1.4207 -0.3948
14313SOL     OW44379   6.599   7.474  12.041 -0.2242 -0.3773 -0.2986
14313SOL    HW144380   6.525   7.513  11.996  0.2389  0.3118 -0.4725
14313SOL    HW244381   6.676   7.508  11.996  0.2884  0.9092  1.4413
14314SOL     OW44382   7.429   4.463   0.792  0.2264 -0.2871 -0.3490
14314SOL    HW144383   7.429   4.531   0.859 -0.9759  0.0579 -0.6679
14314SOL    HW244384   7.379   4.501   0.719 -0.1490 -1.3715 -0.6802
14315SOL     OW44385   1.580   3.709   1.564 -0.0498  0.6343 -0.3393
14315SOL    HW144386   1.628   3.777   1.611  0.7818 -1.6513  2.4298
14315SOL    HW244387   1.638   3.684   1.492  0.8947  0.9491  0.2938
14316SOL     OW44388   5.761   6.737   7.506  0.1387 -0.5204 -0.2674
14316SOL    HW144389   5.701   6.685   7.452  0.4490  0.2968 -1.4435
14316SOL    HW244390   5.842   6.741   7.455  1.2701 -1.7235  1.3689
14317SOL     OW44391   2.230   4.912  10.095  0.4354  0.6410 -0.0037
14317SOL    HW144392   2.222   5.000  10.059 -0.0246  0.8215  0.5243
14317SOL    HW244393   2.142   4.875  10.089  0.3665  0.6476  0.8483
14318SOL     OW44394   1.765   5.295   4.740 -0.1863  0.2547  0.0481
14318SOL    HW144395   1.842   5.341   4.706 -0.9503 -0.0012 -2.1828
14318SOL    HW244396   1.691   5.353   4.719 -0.9266 -0.9585 -0.8007
14319SOL     OW44397   3.515   1.123   2.386 -0.2076 -0.0271  0.1473
14319SOL    HW144398   3.559   1.055   2.437  3.1743  0.9808 -1.1333
14319SOL    HW244399   3.446   1.155   2.443 -0.1028 -2.5866  1.8713
14320SOL     OW44400   2.711   5.394   7.914  0.3097  0.1598  0.2046
14320SOL    HW144401   2.771   5.393   7.989 -2.0728  1.3882  2.2755
14320SOL    HW244402   2.659   5.315   7.923  0.1098  0.2362 -0.2388
14321SOL     OW44403   3.111   4.793  11.684  0.0765 -0.1967  0.2667
14321SOL    HW144404   3.142   4.735  11.753 -1.0879 -0.6068  0.4656
14321SOL    HW244405   3.046   4.741  11.636 -0.0934  0.5285 -0.3026
14322SOL     OW44406   1.533   2.282   4.720 -0.3114 -0.3725  0.3478
14322SOL    HW144407   1.562   2.334   4.795 -0.5549 -0.5054  0.5361
14322SOL    HW244408   1.483   2.210   4.758 -2.4224  0.7980 -0.0258
14323SOL     OW44409   7.844   0.983   2.610  0.5267  0.3908  0.2540
14323SOL    HW144410   7.795   0.921   2.664  0.4338  0.0370 -0.2290
14323SOL    HW244411   7.936   0.958   2.622  0.6214  1.2178  1.3632
14324SOL     OW44412   7.476   4.127   8.163 -0.7237  0.2701  0.8235
14324SOL    HW144413   7.462   4.217   8.192 -0.2054  1.7269 -2.8591
14324SOL    HW244414   7.405   4.110   8.102  2.2015  0.5090 -3.0269
14325SOL     OW44415   3.308   0.975   1.968 -0.0626  0.2874 -0.3830
14325SOL    HW144416   3.253   1.040   1.923  0.2943  0.6860 -0.2421
14325SOL    HW244417   3.311   0.901   1.907 -1.6070 -0.1702  0.0403
14326SOL     OW44418   6.051   0.149   3.297  0.0181 -0.0695 -0.1317
14326SOL    HW144419   6.123   0.173   3.239 -0.1272  0.2447 -0.1851
14326SOL    HW244420   6.090   0.150   3.385  0.2525 -0.6124 -0.2310
14327SOL     OW44421   0.893   6.444   9.630  0.9651 -0.1315 -0.4642
14327SOL    HW144422   0.937   6.473   9.550 -0.4963  0.4414 -1.0961
14327SOL    HW244423   0.828   6.380   9.600  0.1288  0.3762  0.1981
14328SOL     OW44424   2.199   3.082   6.113  0.2883 -0.4466  0.6454
14328SOL    HW144425   2.290   3.059   6.130 -0.3500 -3.0710  0.8225
14328SOL    HW244426   2.166   3.014   6.054 -1.3818  0.8501 -0.0354
14329SOL     OW44427   3.158   4.043   8.380 -0.6208  0.5983 -0.2134
14329SOL    HW144428   3.253   4.039   8.375 -0.4276  1.6100  1.7572
14329SOL    HW244429   3.129   3.960   8.341  1.0613  0.1586 -0.6261
14330SOL     OW44430   7.449   0.547  11.654 -0.3705 -0.4226  0.6799
14330SOL    HW144431   7.526   0.502  11.689  0.5611  0.3471 -0.3046
14330SOL    HW244432   7.436   0.621  11.713  1.0013  0.6909 -0.3437
14331SOL     OW44433   4.426   4.549   8.895  0.3864  0.0134 -0.2431
14331SOL    HW144434   4.341   4.582   8.865  0.0324 -1.0731 -0.4662
14331SOL    HW244435   4.489   4.603   8.849 -0.1805  0.1564 -0.8758
14332SOL     OW44436   2.040   2.084  10.304  0.4497  0.4250  0.3606
14332SOL    HW144437   2.035   2.012  10.242 -0.4411  0.7879 -0.0064
14332SOL    HW244438   2.123   2.128  10.283 -0.4672  1.3585 -1.5206
14333SOL     OW44439   1.984   4.699   8.295  0.3513 -0.0392 -0.3952
14333SOL    HW144440   1.920   4.724   8.362  0.1642 -0.5266 -0.3865
14333SOL    HW244441   1.969   4.760   8.223 -0.7326 -0.6955 -0.7532
14334SOL     OW44442   5.835   0.097   3.115 -0.2230  0.0307 -0.3354
14334SOL    HW144443   5.764   0.075   3.176  0.4150  0.4710  0.6064
14334SOL    HW244444   5.903   0.135   3.171  0.9982 -0.9112 -1.1369
14335SOL     OW44445   1.442   5.614  12.120 -0.0345  0.2304  0.5130
14335SOL    HW144446   1.465   5.527  12.152  1.1762  0.0988 -0.6252
14335SOL    HW244447   1.424   5.602  12.027  1.0458  1.3170  0.1325
14336SOL     OW44448   5.629   1.749   7.373 -0.4098  0.1874 -0.3806
14336SOL    HW144449   5.625   1.707   7.459  0.4820 -0.6653 -0.7400
14336SOL    HW244450   5.683   1.827   7.387 -0.1935  0.0034 -0.1720
14337SOL     OW44451   6.640   3.761   9.055 -0.4046 -0.7812 -0.0937
14337SOL    HW144452   6.600   3.840   9.019  0.2426  0.1841  1.2485
14337SOL    HW244453   6.567   3.702   9.072 -1.0304  0.0580  0.1690
14338SOL     OW44454   5.228   5.728   8.802  0.4359 -0.2033 -0.1242
14338SOL    HW144455   5.253   5.636   8.794  1.3834 -0.0577  0.8149
14338SOL    HW244456   5.142   5.727   8.843  0.3986 -0.6770 -0.2131
14339SOL     OW44457   6.444   2.599   8.958  0.2168  0.2135 -0.6688
14339SOL    HW144458   6.467   2.638   8.874 -0.3556  1.4322 -0.2796
14339SOL    HW244459   6.500   2.645   9.021  0.6881 -0.7364 -0.3783
14340SOL     OW44460   5.538   2.373   3.986 -0.0611 -0.3027  0.0357
14340SOL    HW144461   5.525   2.337   3.899 -0.9364 -0.8750  0.3929
14340SOL    HW244462   5.496   2.310   4.045 -0.9596  0.9039  0.7354
14341SOL     OW44463   0.949   0.036   7.183  0.1448  0.1080  0.1716
14341SOL    HW144464   0.995  -0.003   7.258  0.2065  1.6243  0.9762
14341SOL    HW244465   0.881   0.090   7.223 -1.0515 -0.5203 -0.9542
14342SOL     OW44466   5.941   3.924  11.396  0.4253 -0.1869 -0.3674
14342SOL    HW144467   6.023   3.886  11.364  0.0719 -1.9050  0.6329
14342SOL    HW244468   5.921   3.873  11.475 -2.0533 -0.4036 -1.0580
14343SOL     OW44469   3.663   6.058   1.192  0.1931 -0.2848 -0.3968
14343SOL    HW144470   3.695   6.108   1.268 -0.8700 -0.6577  0.3177
14343SOL    HW244471   3.636   5.974   1.228  0.1659 -0.6659 -1.2877
14344SOL     OW44472   7.210   3.000   9.603 -0.1694 -0.6540 -0.3186
14344SOL    HW144473   7.117   2.981   9.596 -0.6279  1.0871  0.5195
14344SOL    HW244474   7.229   3.056   9.527 -0.1087  0.0385  0.1990
14345SOL     OW44475   3.763   7.567   7.928  0.2175  0.0178 -0.3976
14345SOL    HW144476   3.850   7.570   7.967  0.2795  0.9517 -0.5924
14345SOL    HW244477   3.731   7.479   7.948  0.6944  0.0969  0.7628
14346SOL     OW44478   6.208   0.376   3.817  0.6762  0.3749 -0.6289
14346SOL    HW144479   6.145   0.361   3.888 -0.5999 -1.1001 -1.9992
14346SOL    HW244480   6.164   0.438   3.759  0.8375  0.0123 -1.1477
14347SOL     OW44481   1.354   3.785   5.170  0.1487  0.3482 -0.4263
14347SOL    HW144482   1.407   3.835   5.107  0.4702 -2.6019 -2.6758
14347SOL    HW244483   1.419   3.744   5.228  0.4969 -2.5258 -2.6217
14348SOL     OW44484   5.365   4.114   1.978 -0.0160  0.0250  0.2319
14348SOL    HW144485   5.405   4.198   1.958 -0.0240  0.4388  1.8716
14348SOL    HW244486   5.306   4.131   2.051  2.7864 -2.0063  3.3191
14349SOL     OW44487   2.754   3.592   2.555 -0.2656 -0.2753 -0.1781
14349SOL    HW144488   2.712   3.669   2.593 -0.3575  0.3402 -1.4700
14349SOL    HW244489   2.681   3.533   2.535 -0.4077  0.1791 -1.0671
14350SOL     OW44490   0.347   7.454   1.163 -0.2540  0.1234 -0.1648
14350SOL    HW144491   0.371   7.542   1.133 -1.1105  0.7793  0.9746
14350SOL    HW244492   0.254   7.461   1.184 -0.1910 -0.8849  0.5058
14351SOL     OW44493   5.945   2.962  10.189  0.3232  0.4108  0.1904
14351SOL    HW144494   6.010   2.916  10.137  1.2092  0.7053  1.0031
14351SOL    HW244495   5.995   3.001  10.261 -0.3860  2.6492 -0.4502
14352SOL     OW44496   3.341   6.502   7.365 -0.1682 -0.3164 -0.5721
14352SOL    HW144497   3.314   6.445   7.437 -0.1499  0.1559 -0.1909
14352SOL    HW244498   3.285   6.579   7.373  0.8047  0.3688 -0.1914
14353SOL     OW44499   7.409   7.286   1.069  0.1158  0.0018  0.1372
14353SOL    HW144500   7.463   7.208   1.085 -0.5071 -0.5876 -0.5502
14353SOL    HW244501   7.333   7.274   1.126 -0.5583 -0.5089 -0.8339
14354SOL     OW44502   3.672   0.838   6.590  0.4130  0.1236 -0.3125
14354SOL    HW144503   3.724   0.904   6.544 -0.0210  0.6341 -0.0760
14354SOL    HW244504   3.668   0.869   6.680  1.7838 -1.1831  0.2544
14355SOL     OW44505   6.280   5.630   5.373  0.0826 -0.3589  0.3742
14355SOL    HW144506   6.366   5.621   5.413  1.5621  0.1240 -2.5000
14355SOL    HW244507   6.270   5.553   5.318 -0.8815  0.0811 -0.1053
14356SOL     OW44508   6.025   4.041   0.100  0.5219  0.3375  0.2538
14356SOL    HW144509   6.114   4.060   0.129  0.5074  2.2054 -0.7340
14356SOL    HW244510   5.984   4.127   0.092 -1.2183 -0.4522  0.1748
14357SOL     OW44511   2.054   7.510  10.741  0.0872 -0.8599 -0.3213
14357SOL    HW144512   1.983   7.532  10.802 -0.5768 -2.1744 -0.5782
14357SOL    HW244513   2.132   7.548  10.780 -0.8978  1.6814 -0.6227
14358SOL     OW44514   2.667   2.749   8.288  0.3068  0.2007  0.1126
14358SOL    HW144515   2.698   2.808   8.220 -0.4322 -0.0990 -0.4941
14358SOL    HW244516   2.699   2.662   8.263  0.9094  0.2416  0.7013
14359SOL     OW44517   4.892   4.706   1.685 -0.1913  0.1500 -0.4010
14359SOL    HW144518   4.821   4.761   1.652 -1.4206 -1.5042 -0.6715
14359SOL    HW244519   4.884   4.712   1.780  0.4376  1.3236 -0.4052
14360SOL     OW44520   1.962   1.940   5.730 -0.1246 -0.0957  0.5658
14360SOL    HW144521   2.050   1.908   5.707  0.1073  0.2373  0.9769
14360SOL    HW244522   1.935   1.991   5.653  0.3142  0.3454  0.7039
14361SOL     OW44523   6.679   4.106   6.658  0.1603  0.3876 -0.0755
14361SOL    HW144524   6.768   4.071   6.671 -0.0234 -0.1824 -0.3236
14361SOL    HW244525   6.683   4.148   6.572  0.6420  1.8413  0.6125
14362SOL     OW44526   2.486   6.066  11.197 -0.3088 -0.0347 -0.0964
14362SOL    HW144527   2.497   6.161  11.189 -0.7362 -0.1046 -1.6724
14362SOL    HW244528   2.429   6.056  11.274 -3.2918  1.2320 -1.9679
14363SOL     OW44529   5.819   6.156  10.282  0.8473 -0.2648 -0.0409
14363SOL    HW144530   5.757   6.183  10.350  2.6190  1.2501  1.0765
14363SOL    HW244531   5.877   6.094  10.326  1.4202 -0.0176 -0.4379
14364SOL     OW44532   7.439   2.493   6.232 -0.5238 -0.1985 -0.3862
14364SOL    HW144533   7.356   2.450   6.208 -0.3831 -1.6036  1.3968
14364SOL    HW244534   7.480   2.514   6.148 -3.1492  1.5867 -1.3575
14365SOL     OW44535   4.855   0.074   5.432  0.0993  0.1612  0.3168
14365SOL    HW144536   4.921   0.037   5.374 -1.2621 -1.4183 -0.3166
14365SOL    HW244537   4.806   0.135   5.377  1.0887  1.4692  0.8333
14366SOL     OW44538   5.000   6.304   3.046 -0.3447 -0.0923  0.3723
14366SOL    HW144539   5.043   6.234   2.997 -0.5958  0.2348 -0.3268
14366SOL    HW244540   5.055   6.381   3.031 -0.9557  0.2416 -0.2233
14367SOL     OW44541   7.507   6.545   7.530  0.5199  0.0542 -0.0941
14367SOL    HW144542   7.544   6.570   7.446 -1.5681  0.1869 -1.0553
14367SOL    HW244543   7.453   6.619   7.556  0.5970 -0.2632  1.0156
14368SOL     OW44544   4.707   5.757   3.080 -0.1954 -0.0047 -0.4881
14368SOL    HW144545   4.721   5.811   3.003  0.7512  1.8663  0.9040
14368SOL    HW244546   4.794   5.722   3.101  0.0791  1.4522  1.0400
14369SOL     OW44547   6.540   3.294   9.650 -0.0955 -0.0534  0.1218
14369SOL    HW144548   6.535   3.316   9.743  1.2274 -0.7030  0.3714
14369SOL    HW244549   6.498   3.367   9.605 -0.1484  0.5859  1.1956
14370SOL     OW44550   7.148   3.122   0.525  0.7228 -0.3350 -0.1797
14370SOL    HW144551   7.201   3.175   0.584 -0.8426  0.5015  0.5154
14370SOL    HW244552   7.118   3.049   0.578  0.5550 -0.4125 -0.3793
14371SOL     OW44553   6.928   4.356   7.897 -0.2783 -0.0349  0.5158
14371SOL    HW144554   7.004   4.385   7.947  0.2550  0.2268 -0.4130
14371SOL    HW244555   6.947   4.382   7.807 -1.7319  0.5496  0.3439
14372SOL     OW44556   5.634   2.257  11.082 -0.5265 -0.1313 -0.1621
14372SOL    HW144557   5.592   2.302  11.009  0.7431  1.2681 -0.1047
14372SOL    HW244558   5.618   2.164  11.067  0.7748 -0.0049 -2.9586
14373SOL     OW44559   7.446   7.345   4.545  0.2614 -0.1707  0.3026
14373SOL    HW144560   7.392   7.424   4.557  0.3359 -0.1829  0.7411
14373SOL    HW244561   7.465   7.343   4.451  0.0418  0.1928  0.2477
14374SOL     OW44562   5.865   1.010   3.446 -0.2837 -0.5526 -0.0812
14374SOL    HW144563   5.956   0.979   3.447 -0.1811 -0.2458  0.3756
14374SOL    HW244564   5.873   1.103   3.427 -0.4934 -0.4834  0.1850
14375SOL     OW44565   6.212   7.423   2.763 -0.2031  0.3331  0.5146
14375SOL    HW144566   6.205   7.327   2.766 -1.0845  0.3948  0.8834
14375SOL    HW244567   6.221   7.444   2.670  1.9711 -0.2073  0.5514
14376SOL     OW44568   6.467   2.406   7.860  0.3043 -0.2008  0.2632
14376SOL    HW144569   6.468   2.480   7.921  0.1959  0.7377 -0.8445
14376SOL    HW244570   6.402   2.345   7.897  1.6913 -0.6273  2.1592
14377SOL     OW44571   3.258   6.238   8.816  0.0215  0.0298 -0.0781
14377SOL    HW144572   3.338   6.189   8.836  0.2033  0.0735 -0.6715
14377SOL    HW244573   3.216   6.188   8.747 -0.3766  0.1033  0.1096
14378SOL     OW44574   0.580   1.160  10.524 -0.3892 -0.1951  0.4417
14378SOL    HW144575   0.664   1.205  10.517  1.6021 -3.5302  0.6753
14378SOL    HW244576   0.546   1.158  10.435 -1.1407  2.5962  0.5859
14379SOL     OW44577   0.348   4.120   0.055  0.6486 -0.4569  0.3661
14379SOL    HW144578   0.306   4.117  -0.030 -1.0591 -0.6812  1.1769
14379SOL    HW244579   0.299   4.186   0.104  0.2984 -1.7453  1.8234
14380SOL     OW44580   3.155   7.515   5.042  0.7281  0.0429  0.2665
14380SOL    HW144581   3.231   7.519   5.099 -0.1247  0.2432  1.4303
14380SOL    HW244582   3.089   7.570   5.086  0.7187  2.0202 -1.9704
14381SOL     OW44583   0.181   7.385   4.327 -0.2615  0.4224  0.4439
14381SOL    HW144584   0.217   7.417   4.244 -0.6270  1.3601  0.6362
14381SOL    HW244585   0.205   7.451   4.392  0.0759 -0.3369  1.1048
14382SOL     OW44586   2.104   4.946   9.479  0.2622 -0.5567 -0.5482
14382SOL    HW144587   2.158   5.021   9.457  1.4417 -1.4354 -0.7704
14382SOL    HW244588   2.097   4.947   9.574  0.2828 -0.1884 -0.5501
14383SOL     OW44589   0.932   1.589   8.859  0.1969 -0.0266  0.3813
14383SOL    HW144590   0.919   1.661   8.921 -1.6238 -0.4177  0.5168
14383SOL    HW244591   0.919   1.629   8.773  0.0929 -0.0151  0.4027
14384SOL     OW44592   5.020   4.042   7.013 -0.1647  0.1166 -0.7672
14384SOL    HW144593   5.051   4.065   6.925  0.3834 -0.2304 -0.6677
14384SOL    HW244594   4.980   4.123   7.046 -0.7040  0.1492 -1.4741
14385SOL     OW44595   0.963   1.099   0.701 -0.1929 -0.2617 -0.6687
14385SOL    HW144596   0.891   1.041   0.676 -0.6953 -0.5550  1.3498
14385SOL    HW244597   1.022   1.045   0.753  0.1147  0.6393 -0.0461
14386SOL     OW44598   3.793   5.263  12.000  0.7410 -0.3032  0.3269
14386SOL    HW144599   3.809   5.347  11.956 -0.7568  0.2602  0.7781
14386SOL    HW244600   3.819   5.197  11.937 -1.1565  0.4727 -1.4111
14387SOL     OW44601   7.181   1.914   5.128 -0.0331  0.5676  0.1945
14387SOL    HW144602   7.222   1.943   5.209  0.3785  1.7933 -0.4268
14387SOL    HW244603   7.094   1.883   5.154  1.2499 -2.2408  1.5545
14388SOL     OW44604   7.409   6.310   0.989  0.2595 -1.1123  0.2918
14388SOL    HW144605   7.371   6.387   0.945  0.4022  0.1767  2.3245
14388SOL    HW244606   7.443   6.257   0.917 -1.7893 -0.3772 -1.3444
14389SOL     OW44607   4.301   6.291   4.857 -0.3312 -0.4098  0.3850
14389SOL    HW144608   4.356   6.219   4.888 -0.1594 -0.1937  0.5894
14389SOL    HW244609   4.211   6.259   4.867 -0.2824 -0.2829  1.2574
14390SOL     OW44610   7.701   0.604   1.792 -0.3051 -0.2267 -0.2667
14390SOL    HW144611   7.647   0.550   1.735 -2.4512 -0.2241  1.6007
14390SOL    HW244612   7.639   0.661   1.837  1.4663  0.9876  0.7817
14391SOL     OW44613   5.707   6.387   1.955 -0.7011  1.3791  0.1978
14391SOL    HW144614   5.665   6.394   1.869 -2.5061 -1.4702  0.7092
14391SOL    HW244615   5.795   6.352   1.936 -1.4273 -0.1656 -0.5066
14392SOL     OW44616   0.893   7.835   5.104  0.2905  0.3313 -0.0532
14392SOL    HW144617   0.834   7.873   5.170 -0.1121  0.3098 -0.3996
14392SOL    HW244618   0.968   7.804   5.155 -0.3538 -0.3667  0.4905
14393SOL     OW44619   6.148   2.471   4.894  0.2539 -0.3964 -0.0962
14393SOL    HW144620   6.137   2.564   4.915 -1.0198 -0.8031  1.1878
14393SOL    HW244621   6.060   2.435   4.898  0.6038 -1.4970 -1.5417
14394SOL     OW44622   6.238   1.657   0.517 -0.3833  0.4971  0.0563
14394SOL    HW144623   6.250   1.566   0.489  1.1012  0.5581  0.4256
14394SOL    HW244624   6.203   1.701   0.439 -1.1704 -0.3796 -0.1099
14395SOL     OW44625   2.884   5.557   7.104 -0.0260 -0.5902 -0.5498
14395SOL    HW144626   2.895   5.521   7.192  0.3131  0.2582 -0.2346
14395SOL    HW244627   2.873   5.480   7.048  1.6728 -1.2573 -0.0430
14396SOL     OW44628   4.913   7.719   3.635  0.5046 -0.1163 -0.1914
14396SOL    HW144629   4.998   7.743   3.599  0.9811 -0.7208  0.5188
14396SOL    HW244630   4.859   7.701   3.558  1.0890  0.0020 -0.6375
14397SOL     OW44631   4.342   6.029   4.929 -0.2490  0.3201  0.6819
14397SOL    HW144632   4.287   5.966   4.881  0.6839  1.2322 -1.7345
14397SOL    HW244633   4.396   5.974   4.987  1.0804 -1.2771 -1.8944
14398SOL     OW44634   2.174   2.360   7.928 -0.0109  0.8793  0.4982
14398SOL    HW144635   2.205   2.434   7.981 -0.4294 -0.0853  2.1555
14398SOL    HW244636   2.238   2.291   7.944 -1.4950 -0.2684  1.8712
14399SOL     OW44637   7.062   4.250   5.660 -0.3420 -0.0955 -0.4586
14399SOL    HW144638   7.035   4.341   5.673  1.5433  0.5511 -0.7901
14399SOL    HW244639   6.981   4.205   5.635 -1.2549  1.5469 -0.6360
14400SOL     OW44640   5.388   1.610  11.505 -0.1919  0.1655 -0.3817
14400SOL    HW144641   5.451   1.682  11.507 -0.6162  0.5346 -0.3479
14400SOL    HW244642   5.341   1.622  11.422 -0.3974  0.0439 -0.2836
14401SOL     OW44643   4.611   5.430   0.006  0.0424 -0.4412 -0.5448
14401SOL    HW144644   4.567   5.514   0.004  0.6377 -0.1374 -2.5024
14401SOL    HW244645   4.692   5.447   0.054  1.2272  0.7253 -2.7866
14402SOL     OW44646   3.288   3.946   2.117 -0.0634  0.2439 -0.2490
14402SOL    HW144647   3.305   4.040   2.125 -0.0196  0.1327  1.1056
14402SOL    HW244648   3.362   3.913   2.065  0.7100  0.7286  0.5164
14403SOL     OW44649   2.666   2.043   8.299  0.1581 -0.3187 -0.0276
14403SOL    HW144650   2.690   2.010   8.213  0.6528  0.4173 -0.1786
14403SOL    HW244651   2.735   2.106   8.321  0.8303 -1.4991  1.5143
14404SOL     OW44652   2.495   7.768   4.075  0.6086  0.0747  0.5075
14404SOL    HW144653   2.439   7.706   4.122  1.8495 -0.6880  1.0434
14404SOL    HW244654   2.493   7.739   3.984  0.4474 -0.1870  0.5948
14405SOL     OW44655   3.526   3.910   7.686 -0.6664 -0.0169 -0.1138
14405SOL    HW144656   3.619   3.935   7.682 -0.6394  0.1400  1.0084
14405SOL    HW244657   3.480   3.984   7.647 -0.3342  0.0250 -0.4371
14406SOL     OW44658   7.033   7.120   4.407 -0.1565  0.0320 -0.7608
14406SOL    HW144659   6.948   7.163   4.422  0.0411  0.0890  0.2712
14406SOL    HW244660   7.020   7.069   4.328 -1.3921 -0.5324 -0.2255
14407SOL     OW44661   7.029   7.035   3.932 -0.6680 -0.3859  0.4126
14407SOL    HW144662   7.100   6.981   3.968 -0.0403 -1.1312 -1.7906
14407SOL    HW244663   7.058   7.125   3.946  0.2055 -0.6676  0.4794
14408SOL     OW44664   2.694   6.508   0.724 -1.0075  0.1219  0.0232
14408SOL    HW144665   2.740   6.456   0.791  0.5048 -0.5043 -1.4081
14408SOL    HW244666   2.697   6.452   0.646 -1.8910  1.2172 -0.8142
14409SOL     OW44667   0.246   3.092   5.720  0.1452  0.3542 -0.0636
14409SOL    HW144668   0.309   3.160   5.697  0.1074 -0.0601 -1.5231
14409SOL    HW244669   0.218   3.056   5.635 -2.0854  0.5455  0.5337
14410SOL     OW44670   0.294   7.065   8.097  0.1125 -0.1510  0.1942
14410SOL    HW144671   0.373   7.054   8.151 -0.1416 -0.7916  0.4443
14410SOL    HW244672   0.246   6.984   8.109 -0.4183  0.0963 -0.2433
14411SOL     OW44673   0.574   4.135   1.640  0.2270 -0.0171 -0.0379
14411SOL    HW144674   0.608   4.099   1.559 -0.7307  1.2652 -1.0475
14411SOL    HW244675   0.592   4.229   1.635 -1.4728  0.3659  0.3690
14412SOL     OW44676   6.582   7.570  10.614 -0.1156 -0.2380  0.4809
14412SOL    HW144677   6.659   7.542  10.563 -0.5795  0.8524 -0.9027
14412SOL    HW244678   6.588   7.521  10.696  2.8618  0.8730  1.0492
14413SOL     OW44679   1.427   1.183   0.068 -0.1661  0.6138 -0.3363
14413SOL    HW144680   1.399   1.143  -0.014 -2.2798  0.9681  0.1459
14413SOL    HW244681   1.438   1.276   0.047  0.7552  0.4623 -0.5426
14414SOL     OW44682   4.823   1.841   4.854  0.1756  0.0700 -0.2073
14414SOL    HW144683   4.782   1.795   4.780 -0.9537  0.1938  0.3183
14414SOL    HW244684   4.914   1.854   4.827  0.1282 -1.1083 -1.0056
14415SOL     OW44685   5.610   0.306   9.399  0.2557  0.1843  0.5681
14415SOL    HW144686   5.619   0.224   9.350 -0.8220 -0.9609  2.2047
14415SOL    HW244687   5.688   0.356   9.375  1.8853 -2.0374  0.8317
14416SOL     OW44688   6.068   2.105   9.860 -0.3871 -0.6082  0.5348
14416SOL    HW144689   6.070   2.183   9.916  1.3076 -0.1575 -0.1042
14416SOL    HW244690   6.154   2.065   9.872 -0.0807 -0.6475 -1.5209
14417SOL     OW44691   1.500   3.695   8.990  0.1499  0.3227  0.2296
14417SOL    HW144692   1.519   3.609   9.026  0.4850 -0.3399 -1.4412
14417SOL    HW244693   1.529   3.690   8.899 -1.7424  1.5245 -0.4865
14418SOL     OW44694   4.559   5.060  10.532  0.0602  0.0774 -0.0412
14418SOL    HW144695   4.597   5.064  10.620 -1.3600 -1.5064  0.7053
14418SOL    HW244696   4.551   5.151  10.504 -0.0568  0.6427  1.7467
14419SOL     OW44697   0.668   2.067   6.058 -0.2251  0.1019  0.1203
14419SOL    HW144698   0.603   2.022   6.111  0.5646  0.0961  1.1174
14419SOL    HW244699   0.681   2.152   6.101  0.9713 -0.2012  0.4010
14420SOL     OW44700   1.062   6.268   5.586  0.1349  0.2139  0.5266
14420SOL    HW144701   0.986   6.302   5.634 -0.7424  0.8775 -1.2560
14420SOL    HW244702   1.137   6.296   5.639 -0.8229 -0.4561  2.3260
14421SOL     OW44703   2.205   6.315   7.796  0.1122  0.1991  0.1042
14421SOL    HW144704   2.170   6.295   7.883  1.8109 -0.0750  0.7687
14421SOL    HW244705   2.128   6.319   7.740 -1.1920  1.6467  1.8489
14422SOL     OW44706   0.550   7.424   7.264 -0.1230 -0.8514  0.7644
14422SOL    HW144707   0.535   7.355   7.329 -0.1349 -0.6478  0.9775
14422SOL    HW244708   0.506   7.392   7.185  0.8986 -1.6407  0.5050
14423SOL     OW44709   1.863   7.341   0.712 -0.4882 -0.6260  0.3550
14423SOL    HW144710   1.898   7.252   0.708 -2.3850 -1.4609  1.0491
14423SOL    HW244711   1.889   7.374   0.798  0.7120 -0.2657 -0.1315
14424SOL     OW44712   5.300   5.974   9.849  0.1721  0.0467 -0.3898
14424SOL    HW144713   5.295   5.912   9.922  0.3351  1.6940  1.1089
14424SOL    HW244714   5.209   5.989   9.824 -0.1329  1.4250  1.3043
14425SOL     OW44715   5.928   5.087   4.821  0.1742  0.4720  0.1345
14425SOL    HW144716   5.898   5.131   4.900  1.8506 -1.0408  1.6789
14425SOL    HW244717   5.916   4.994   4.838  1.9102  0.0273 -0.7677
14426SOL     OW44718   3.328   7.372  11.648  0.0894  0.2257  0.4153
14426SOL    HW144719   3.336   7.353  11.742  0.6505  0.8341  0.5019
14426SOL    HW244720   3.410   7.417  11.626  0.7240 -1.4011 -0.7426
14427SOL     OW44721   3.102   6.581   5.752 -0.1082 -0.0425  0.2553
14427SOL    HW144722   3.050   6.546   5.680 -0.5275  2.2621 -0.6490
14427SOL    HW244723   3.183   6.611   5.711  0.1430  0.2167  0.9263
14428SOL     OW44724   4.507   2.728   1.465  0.0006 -0.4716 -0.1111
14428SOL    HW144725   4.468   2.806   1.426 -0.0807 -0.2548  0.3945
14428SOL    HW244726   4.539   2.758   1.551 -2.7400 -1.6729  1.4458
14429SOL     OW44727   7.380   5.651  11.877  0.0854  0.2737 -0.3205
14429SOL    HW144728   7.342   5.597  11.807  0.5422  0.8879 -1.0560
14429SOL    HW244729   7.449   5.701  11.834  0.5554  0.4694  0.6327
14430SOL     OW44730   0.861   3.981   0.260  0.3479 -0.2299  0.4759
14430SOL    HW144731   0.926   4.052   0.259 -0.2061  0.3100 -1.6413
14430SOL    HW244732   0.777   4.026   0.258 -0.0031 -0.9066 -1.3628
14431SOL     OW44733   4.457   4.105  10.588  0.4857 -0.6228  0.6551
14431SOL    HW144734   4.525   4.115  10.655  1.5082  1.4723 -0.5794
14431SOL    HW244735   4.387   4.164  10.617  0.8105  0.0686  0.0646
14432SOL     OW44736   4.489   4.224   3.259  0.0996  0.1478 -0.2854
14432SOL    HW144737   4.430   4.178   3.199 -0.8242  0.5344  0.2995
14432SOL    HW244738   4.576   4.211   3.222 -0.2551 -1.1433 -0.7254
14433SOL     OW44739   6.443   0.958   5.085  0.0826  0.1702  0.0718
14433SOL    HW144740   6.404   1.038   5.122  1.1536 -0.2257  2.1681
14433SOL    HW244741   6.416   0.888   5.144  3.6999 -0.1584  1.5536
14434SOL     OW44742   2.612   7.882   0.148 -0.0003 -0.9302  0.1244
14434SOL    HW144743   2.601   7.901   0.055 -1.8068  1.0257  0.6622
14434SOL    HW244744   2.523   7.868   0.180  0.4267 -0.0006  1.8387
14435SOL     OW44745   4.995   1.991  10.297  0.1937 -0.5258 -0.1836
14435SOL    HW144746   4.921   1.934  10.317  1.5367 -3.3938 -2.5310
14435SOL    HW244747   4.974   2.031  10.213  0.9414 -0.6951 -0.4611
14436SOL     OW44748   5.166   0.192   8.398  0.8805 -0.1841 -0.0312
14436SOL    HW144749   5.156   0.188   8.303 -0.5621  1.7684 -0.0268
14436SOL    HW244750   5.184   0.284   8.416 -0.4539 -0.2190  1.6968
14437SOL     OW44751   5.499   4.422  10.630 -0.6489  0.0652 -0.2741
14437SOL    HW144752   5.530   4.347  10.581  1.7816  0.8366 -0.0476
14437SOL    HW244753   5.551   4.496  10.597 -0.6353  1.0342  1.7731
14438SOL     OW44754   2.750   1.978  12.369 -0.0763  0.1318  0.4320
14438SOL    HW144755   2.672   1.974  12.314  0.0047 -1.0799  0.3747
14438SOL    HW244756   2.752   2.067  12.403 -1.6220  0.1027  0.6441
14439SOL     OW44757   7.167   1.300   7.132 -0.2442  0.2809 -0.1562
14439SOL    HW144758   7.177   1.375   7.192  0.2522 -0.8395  1.2156
14439SOL    HW244759   7.252   1.257   7.132 -0.5198 -0.2843 -0.9364
14440SOL     OW44760   4.055   5.324   7.506 -0.0204 -0.5390  0.2788
14440SOL    HW144761   4.071   5.391   7.439  1.1443 -1.0980 -0.0138
14440SOL    HW244762   4.135   5.322   7.557 -0.1317 -1.5670  0.4236
14441SOL     OW44763   1.410   2.416   5.468 -0.0174  0.7373  0.1227
14441SOL    HW144764   1.417   2.325   5.440 -0.0311  0.4431  1.0311
14441SOL    HW244765   1.390   2.464   5.388 -0.7426 -0.1552 -0.2577
14442SOL     OW44766   6.132   1.379  12.339  0.5304 -0.4341  0.5168
14442SOL    HW144767   6.211   1.398  12.390  0.8657 -1.5991  0.4667
14442SOL    HW244768   6.081   1.320  12.395 -1.5116  2.1872  1.5861
14443SOL     OW44769   5.851   6.698   0.443 -0.4786  0.0565 -0.5377
14443SOL    HW144770   5.810   6.716   0.527 -1.1098  0.1225 -0.8537
14443SOL    HW244771   5.791   6.734   0.378 -0.0489 -0.0804 -1.0256
14444SOL     OW44772   2.213   6.799   6.487  0.4166 -0.0612  0.0887
14444SOL    HW144773   2.250   6.805   6.575  0.8428 -1.1840 -0.0059
14444SOL    HW244774   2.214   6.706   6.466 -2.5548 -0.1924  0.1010
14445SOL     OW44775   4.126   0.925   7.335 -0.4519 -0.0980 -0.2757
14445SOL    HW144776   4.199   0.884   7.382 -0.5093 -0.5390 -0.5698
14445SOL    HW244777   4.064   0.949   7.403  0.0126  0.3816 -0.0082
14446SOL     OW44778   4.650   0.118   7.487 -0.1172 -0.0017 -0.4470
14446SOL    HW144779   4.591   0.121   7.562 -1.0776  0.3529 -1.1862
14446SOL    HW244780   4.600   0.158   7.416  1.6534  1.8881 -0.7051
14447SOL     OW44781   4.013   1.797   4.190 -0.1924  0.2908  0.2461
14447SOL    HW144782   4.074   1.723   4.182  1.1913  1.4137 -0.1364
14447SOL    HW244783   3.991   1.800   4.283 -0.3705 -0.6685  0.2444
14448SOL     OW44784   3.603   1.578   4.191 -0.9846 -0.0881 -0.0107
14448SOL    HW144785   3.606   1.503   4.249  0.2307  0.7919  1.1242
14448SOL    HW244786   3.600   1.654   4.250 -1.1228  0.7893 -1.1097
14449SOL     OW44787   1.598   4.108  11.918  0.0649 -0.1239  0.0782
14449SOL    HW144788   1.673   4.087  11.973  0.2046  0.8181  0.2758
14449SOL    HW244789   1.523   4.065  11.960  0.6320 -1.9784 -0.7137
14450SOL     OW44790   7.392   4.323  12.057  0.2557 -0.5076  0.0786
14450SOL    HW144791   7.297   4.320  12.065  0.3212  1.3132  3.3198
14450SOL    HW244792   7.410   4.410  12.020  0.6857 -1.1869 -1.3757
14451SOL     OW44793   2.814   1.627  10.053  0.2620 -0.1509  0.4836
14451SOL    HW144794   2.741   1.616   9.992  0.6129 -3.0073  0.4532
14451SOL    HW244795   2.891   1.636   9.997  0.1425  1.5836  0.5356
14452SOL     OW44796   0.952   0.152  10.731 -0.3938 -0.0391  0.6672
14452SOL    HW144797   1.042   0.121  10.740  0.5323  2.5617  1.2922
14452SOL    HW244798   0.906   0.113  10.805  0.2554 -1.1634  0.5064
14453SOL     OW44799   2.325   5.921  10.116 -0.3059 -0.6246 -0.2760
14453SOL    HW144800   2.377   5.845  10.088  2.1918  0.1774  1.7610
14453SOL    HW244801   2.335   5.983  10.044  3.1052  0.0979  0.6051
14454SOL     OW44802   1.328   4.838   0.303  0.2052 -0.1349 -0.2176
14454SOL    HW144803   1.411   4.827   0.348 -0.1421 -2.0245  0.0513
14454SOL    HW244804   1.287   4.913   0.346  0.1856 -1.4399  2.2232
14455SOL     OW44805   7.087   1.674   3.006  0.2224  0.3023  0.5417
14455SOL    HW144806   7.035   1.649   2.929 -0.4510 -1.2162  1.4528
14455SOL    HW244807   7.118   1.762   2.986  0.1910 -0.1096 -1.5317
14456SOL     OW44808   0.085   1.470   7.411 -0.3735 -0.4439  0.1493
14456SOL    HW144809   0.110   1.543   7.354  1.3326 -1.7013 -0.7852
14456SOL    HW244810   0.031   1.511   7.480 -0.2543  1.5246 -0.8553
14457SOL     OW44811   2.165   2.262   4.837 -0.3303  0.4125  0.1944
14457SOL    HW144812   2.228   2.250   4.766 -0.7054 -2.6500  0.2436
14457SOL    HW244813   2.220   2.280   4.914  0.1500  2.3325 -0.5308
14458SOL     OW44814   0.653   2.713  11.969 -0.2912  0.4076 -0.7353
14458SOL    HW144815   0.628   2.793  12.016  1.6761 -0.8599  2.8687
14458SOL    HW244816   0.570   2.669  11.951 -1.2322  1.6889  0.2755
14459SOL     OW44817   7.404   5.846   2.606 -0.3842  0.1952 -0.1168
14459SOL    HW144818   7.405   5.839   2.701  1.2543 -0.6378 -0.1569
14459SOL    HW244819   7.472   5.911   2.586  0.9231 -1.3010 -0.7720
14460SOL     OW44820   3.529   6.341   9.348 -0.3005 -0.7608  0.6124
14460SOL    HW144821   3.545   6.331   9.254 -1.5242 -0.2480  0.3202
14460SOL    HW244822   3.565   6.262   9.387  0.2099 -0.9915 -0.2963
14461SOL     OW44823   5.264   6.760   0.486  0.3957 -0.0697 -0.8916
14461SOL    HW144824   5.261   6.688   0.549 -0.0060 -0.2873 -1.1555
14461SOL    HW244825   5.269   6.717   0.401 -0.8646  0.2012 -1.1086
14462SOL     OW44826   0.502   2.466   4.283 -0.1915 -0.7371  0.0219
14462SOL    HW144827   0.520   2.493   4.193  0.0097  0.3421  0.3684
14462SOL    HW244828   0.407   2.461   4.289 -0.1857 -2.0137 -0.5692
14463SOL     OW44829   6.421   6.130   4.298 -0.2928 -0.3118  0.1899
14463SOL    HW144830   6.401   6.114   4.390  1.0382  0.2333  0.6015
14463SOL    HW244831   6.364   6.070   4.250 -2.7718  1.0730  1.2354
14464SOL     OW44832   2.685   3.889   0.985 -0.3106  0.1704 -1.0878
14464SOL    HW144833   2.758   3.906   0.926  1.5073 -0.1057  0.9352
14464SOL    HW244834   2.686   3.964   1.045 -1.6638  0.1175 -0.9723
14465SOL     OW44835   1.220   7.096  10.482  0.1672  0.2531 -0.3636
14465SOL    HW144836   1.200   7.140  10.564  1.8875  0.6131 -0.0868
14465SOL    HW244837   1.136   7.063  10.450 -0.2213 -2.5224  2.9693
14466SOL     OW44838   0.133   1.522   0.822 -0.0284  0.1213 -0.0095
14466SOL    HW144839   0.045   1.553   0.841  0.5661  1.0466  1.3630
14466SOL    HW244840   0.190   1.593   0.850  1.2047 -0.8506  0.0094
14467SOL     OW44841   3.295   2.485   1.478 -0.1446  0.3572  0.0878
14467SOL    HW144842   3.319   2.428   1.404  1.4324  0.8501  0.1767
14467SOL    HW244843   3.296   2.573   1.441  0.9723  0.6347  0.7473
14468SOL     OW44844   0.629   1.383   5.317  0.7660 -0.4371 -0.2279
14468SOL    HW144845   0.596   1.299   5.283  1.4205 -0.6861 -0.2536
14468SOL    HW244846   0.710   1.360   5.363  1.6753  0.3563 -1.3832
14469SOL     OW44847   6.476   1.145   0.365 -0.2990  0.4907 -0.8190
14469SOL    HW144848   6.518   1.072   0.411  0.8880  2.8856  2.2833
14469SOL    HW244849   6.548   1.189   0.320 -0.2329  1.8468  0.5196
14470SOL     OW44850   3.781   2.715  11.214 -0.2814 -0.1768  0.1071
14470SOL    HW144851   3.866   2.686  11.245 -0.3222 -1.2087 -0.7012
14470SOL    HW244852   3.721   2.645  11.240 -0.4378 -0.6953 -1.5524
14471SOL     OW44853   0.009   1.526   3.218  0.3211 -0.3787 -0.0142
14471SOL    HW144854   0.055   1.498   3.298  2.6171  0.4175 -0.9512
14471SOL    HW244855  -0.079   1.547   3.247  0.4551 -2.1450  1.9083
14472SOL     OW44856   5.640   0.896   4.809  0.4077  0.1402  0.2534
14472SOL    HW144857   5.656   0.918   4.901  0.9098 -0.7837  0.4062
14472SOL    HW244858   5.722   0.919   4.765  1.3470 -2.2502  0.5950
14473SOL     OW44859   5.895   1.720   6.728 -0.0969  0.1251  0.5215
14473SOL    HW144860   5.806   1.756   6.729 -0.2466 -0.0294 -1.6674
14473SOL    HW244861   5.883   1.627   6.747 -0.4705  0.0267 -0.1514
14474SOL     OW44862   7.274   6.529   2.113  0.4152  0.2155 -0.4813
14474SOL    HW144863   7.299   6.562   2.199  1.0694  1.7203 -1.2163
14474SOL    HW244864   7.196   6.581   2.090 -0.0090 -0.4755 -0.6324
14475SOL     OW44865   2.862   1.757  10.387 -0.3694  0.0858 -0.1895
14475SOL    HW144866   2.785   1.764  10.443 -0.8269 -0.6023 -0.7092
14475SOL    HW244867   2.883   1.664  10.386  1.5956  0.4459  1.3968
14476SOL     OW44868   1.157   6.291  10.939 -0.7744 -0.0544  0.1020
14476SOL    HW144869   1.193   6.267  10.853 -0.3582 -0.6244  0.4342
14476SOL    HW244870   1.128   6.382  10.927  1.3168  0.6465 -0.0306
14477SOL     OW44871   5.803   4.833  11.576 -0.6179  0.3474  0.0556
14477SOL    HW144872   5.842   4.746  11.566 -0.7078  0.4020 -0.8057
14477SOL    HW244873   5.864   4.892  11.532  0.0537  0.9037  1.6547
14478SOL     OW44874   6.565   7.746   0.678 -0.4702  0.3974  0.0687
14478SOL    HW144875   6.472   7.727   0.665 -0.2713 -2.0189  1.5252
14478SOL    HW244876   6.569   7.784   0.766 -0.0196  0.0028  0.2166
14479SOL     OW44877   5.892   2.792   3.105  0.6888  0.4885 -0.5186
14479SOL    HW144878   5.930   2.874   3.076 -0.4343  0.4022 -2.4040
14479SOL    HW244879   5.870   2.746   3.024  0.1117 -1.1132  0.4961
14480SOL     OW44880   1.843   7.262   2.486 -0.7900  0.2567  0.7316
14480SOL    HW144881   1.886   7.329   2.538 -1.1166  1.8736 -1.0095
14480SOL    HW244882   1.910   7.231   2.425 -1.0402  0.0203  0.5716
14481SOL     OW44883   4.919   2.504  10.452  0.0830 -0.0958 -0.0265
14481SOL    HW144884   4.960   2.562  10.516 -0.2385 -0.2707  0.3441
14481SOL    HW244885   4.978   2.429  10.447  1.2321  0.8496 -1.5450
14482SOL     OW44886   3.698   5.009   9.703  0.2291 -0.1380 -0.2232
14482SOL    HW144887   3.737   5.027   9.788 -1.1828 -0.9584  0.6227
14482SOL    HW244888   3.734   5.077   9.645  3.0739 -0.9811  0.4172
14483SOL     OW44889   5.030   2.211   7.592 -0.4293 -0.0789 -0.4627
14483SOL    HW144890   5.081   2.131   7.585 -0.0383  0.1275  0.0187
14483SOL    HW244891   5.032   2.233   7.685  0.8793  1.4063 -0.7967
14484SOL     OW44892   0.915   2.203   1.270  0.0107  0.2009  0.2557
14484SOL    HW144893   0.853   2.132   1.251 -1.5137  2.1228 -2.9405
14484SOL    HW244894   0.993   2.159   1.303 -0.7845 -3.0005 -1.6883
14485SOL     OW44895   7.714   6.641   9.130  0.1343 -0.1486 -0.0386
14485SOL    HW144896   7.652   6.575   9.162  0.5060 -0.0798  0.8556
14485SOL    HW244897   7.790   6.632   9.188  1.2895 -0.7568 -1.5881
14486SOL     OW44898   4.060   1.680   6.418  0.6976  0.0746 -0.3439
14486SOL    HW144899   4.100   1.681   6.505  0.1401 -0.0515 -0.0825
14486SOL    HW244900   4.072   1.768   6.384  2.6117 -0.3709 -0.9259
14487SOL     OW44901   2.652   0.840   4.252 -0.1954 -0.4170 -0.4671
14487SOL    HW144902   2.625   0.868   4.164  1.1222  2.5688 -0.0499
14487SOL    HW244903   2.743   0.870   4.259 -0.0774 -1.1182  1.7022
14488SOL     OW44904   4.464   0.834   3.285  0.0738  0.2830 -0.3191
14488SOL    HW144905   4.417   0.898   3.232  0.4927  1.1802  0.3776
14488SOL    HW244906   4.543   0.815   3.235 -0.2081  0.0518 -0.6819
14489SOL     OW44907   6.867   6.984   6.054  0.1385  0.1420  0.4603
14489SOL    HW144908   6.855   6.889   6.051  0.0878  0.1657 -0.2193
14489SOL    HW244909   6.785   7.020   6.018  0.4557  0.4185 -0.0056
14490SOL     OW44910   7.727   3.788   1.133 -0.2354 -0.5110 -0.3690
14490SOL    HW144911   7.654   3.842   1.165  0.2544  1.1070 -1.8576
14490SOL    HW244912   7.803   3.820   1.181 -0.1652 -0.8578 -0.2447
14491SOL     OW44913   6.460   2.192  10.187  0.7051  0.8072  0.2785
14491SOL    HW144914   6.369   2.218  10.172  0.8894  1.1496 -0.2774
14491SOL    HW244915   6.465   2.101  10.158  0.7867  1.1113 -0.6920
14492SOL     OW44916   2.021   4.327   4.507  0.1293 -0.2632 -0.1101
14492SOL    HW144917   1.976   4.393   4.559  0.5690 -0.0780  0.0367
14492SOL    HW244918   2.096   4.300   4.561  0.1760 -0.5926 -0.3351
14493SOL     OW44919   6.279   0.877   3.836 -0.3768  0.2991 -0.0740
14493SOL    HW144920   6.284   0.952   3.776 -0.3227  0.1110 -0.3080
14493SOL    HW244921   6.303   0.802   3.781  3.8043  0.5574  1.0324
14494SOL     OW44922   4.243   5.282   8.766 -0.1617  0.2352  0.6645
14494SOL    HW144923   4.152   5.258   8.745  0.1932  0.6906 -1.6376
14494SOL    HW244924   4.294   5.203   8.748  0.2024  0.7409 -0.5809
14495SOL     OW44925   6.937   0.061   0.080 -0.3189 -0.7297  0.2170
14495SOL    HW144926   6.857   0.074   0.131  0.3865 -0.9794  1.4286
14495SOL    HW244927   7.006   0.055   0.145  0.7304 -0.2809 -0.8235
14496SOL     OW44928   5.764   1.200   4.688 -0.3323  0.2588 -0.4382
14496SOL    HW144929   5.819   1.149   4.747  0.4518  0.5972 -0.8610
14496SOL    HW244930   5.689   1.226   4.741 -0.5363 -0.9551 -0.0969
14497SOL     OW44931   0.852   4.645   9.345 -0.1875  0.1847  0.1552
14497SOL    HW144932   0.802   4.703   9.402 -0.0349  0.7420 -0.2738
14497SOL    HW244933   0.787   4.580   9.315 -0.4347  0.3321  0.3680
14498SOL     OW44934   4.684   6.745  10.500  0.2415 -0.0434 -0.3290
14498SOL    HW144935   4.654   6.700  10.421 -1.5532 -0.5125  0.5585
14498SOL    HW244936   4.641   6.831  10.497 -0.5723 -0.4017  0.5521
14499SOL     OW44937   6.689   6.289   7.194 -0.6871  0.1232 -0.2626
14499SOL    HW144938   6.681   6.285   7.099 -0.6895 -0.8297 -0.2278
14499SOL    HW244939   6.654   6.375   7.217  0.0120  0.6838 -1.1896
14500SOL     OW44940   0.335   6.065   1.860  0.0922 -0.4844 -0.2625
14500SOL    HW144941   0.257   6.011   1.844 -2.2303  2.7400 -0.6635
14500SOL    HW244942   0.374   6.076   1.773  0.8068 -1.6937 -0.1285
14501SOL     OW44943   7.243   2.109   7.943  0.3504 -0.2037 -0.3572
14501SOL    HW144944   7.311   2.063   7.993 -0.9065 -2.0874 -0.2473
14501SOL    HW244945   7.193   2.157   8.008  1.4478  1.0616 -0.4193
14502SOL     OW44946   2.041   1.930   9.860  0.1272  0.3710  0.2149
14502SOL    HW144947   2.043   1.836   9.847  2.3384  0.4735 -0.6872
14502SOL    HW244948   2.027   1.941   9.954 -1.6285 -0.7765  0.1337
14503SOL     OW44949   0.848   2.111   3.602  0.3607  0.4428  0.6426
14503SOL    HW144950   0.837   2.096   3.508  0.0115  1.4929  0.5109
14503SOL    HW244951   0.769   2.073   3.642  1.0602 -1.0923  0.6498
14504SOL     OW44952   6.510   1.485   4.978  0.1239  0.5940 -0.3103
14504SOL    HW144953   6.512   1.410   4.918  0.6573  0.1253  0.2815
14504SOL    HW244954   6.423   1.480   5.018  0.8778 -0.9334  1.2288
14505SOL     OW44955   0.128   5.306  10.432 -0.0904 -0.3793  0.5063
14505SOL    HW144956   0.108   5.242  10.500  1.1441 -0.4848  0.7994
14505SOL    HW244957   0.146   5.253  10.354 -2.6318 -0.2283 -0.2868
14506SOL     OW44958   7.897   5.523   1.319  0.0593  0.7154 -0.1556
14506SOL    HW144959   7.820   5.542   1.266  0.0824  0.9881 -0.0900
14506SOL    HW244960   7.970   5.561   1.270  0.5903 -1.9900 -1.7319
14507SOL     OW44961   6.481   1.344   7.605 -0.4664 -0.8453  0.3840
14507SOL    HW144962   6.513   1.314   7.520 -0.2264  0.2695  0.0629
14507SOL    HW244963   6.554   1.392   7.643 -0.9148 -0.4478  0.7584
14508SOL     OW44964   1.383   2.265   6.791 -0.5040 -0.1693  0.1302
14508SOL    HW144965   1.307   2.258   6.849 -0.8515 -1.5921 -0.4726
14508SOL    HW244966   1.420   2.351   6.812 -1.9374  0.3155  0.8374
14509SOL     OW44967   6.956   7.629   4.811 -0.0832 -0.0406 -0.1299
14509SOL    HW144968   7.031   7.665   4.763 -0.5838  0.3370 -0.6505
14509SOL    HW244969   6.994   7.573   4.878  0.7027  0.9153  0.2472
14510SOL     OW44970   2.327   2.597   5.946 -0.6300 -0.8918 -0.3413
14510SOL    HW144971   2.325   2.521   5.888 -1.4133  0.3462 -2.0321
14510SOL    HW244972   2.381   2.570   6.020  0.1865 -2.6437 -1.5167
14511SOL     OW44973   5.762   3.725   4.034 -0.4674  0.3238 -0.8295
14511SOL    HW144974   5.811   3.796   3.994 -0.8904 -0.2339 -2.4150
14511SOL    HW244975   5.791   3.723   4.125 -1.0166  3.0050 -0.5360
14512SOL     OW44976   1.669   7.451   3.838 -0.2099 -0.0127 -0.2136
14512SOL    HW144977   1.739   7.460   3.903  0.8769  1.5666 -1.5239
14512SOL    HW244978   1.611   7.385   3.875  1.1794 -0.2957  1.6274
14513SOL     OW44979   6.558   4.729  11.647 -0.1900 -0.1288  0.4827
14513SOL    HW144980   6.559   4.686  11.732  2.0895  1.8004  1.5305
14513SOL    HW244981   6.634   4.692  11.600 -0.8887 -0.5042 -0.3896
14514SOL     OW44982   2.271   6.259   5.225  0.4139  0.4502  0.0170
14514SOL    HW144983   2.232   6.264   5.313 -0.1252  1.2402 -0.2595
14514SOL    HW244984   2.357   6.220   5.239  1.0316  2.1043  1.1271
14515SOL     OW44985   4.620   0.268   0.138  0.3097 -0.7558  0.0548
14515SOL    HW144986   4.533   0.304   0.121  0.1161 -0.9052  0.7131
14515SOL    HW244987   4.614   0.177   0.110  0.5333 -0.5279 -0.7650
14516SOL     OW44988   1.009   5.959  10.760 -0.1189  0.1588  0.2204
14516SOL    HW144989   0.915   5.950  10.775 -0.2047  0.1836 -0.2969
14516SOL    HW244990   1.047   5.959  10.848 -0.2024 -3.8757  0.4514
14517SOL     OW44991   2.425   1.154   8.608  0.2700  0.0382  0.3139
14517SOL    HW144992   2.432   1.060   8.589  0.0635 -0.3840  2.1970
14517SOL    HW244993   2.376   1.189   8.534  2.1822 -0.9249 -1.5425
14518SOL     OW44994   1.657   2.026  11.304  0.3189  0.4939  0.7864
14518SOL    HW144995   1.653   1.942  11.259  1.1254  0.5240  0.6433
14518SOL    HW244996   1.750   2.040  11.321  0.3835  2.0742 -0.5876
14519SOL     OW44997   5.426   0.705   7.682  0.0707 -0.0584  0.0231
14519SOL    HW144998   5.389   0.778   7.631 -0.3216 -0.5839 -0.4531
14519SOL    HW244999   5.478   0.748   7.750 -2.5249  0.8082  1.6518
14520SOL     OW45000   4.522   6.336   2.841 -0.3506  0.2599  0.0121
14520SOL    HW145001   4.428   6.321   2.829 -0.6021 -0.2360  2.1413
14520SOL    HW245002   4.553   6.363   2.755 -2.4714  0.5948 -0.7159
14521SOL     OW45003   4.599   0.200   3.276  0.3557 -0.3564  0.2289
14521SOL    HW145004   4.532   0.138   3.305  1.2699 -1.6988 -0.4311
14521SOL    HW245005   4.584   0.211   3.182  0.2564  0.3795  0.3201
14522SOL     OW45006   2.847   3.894   1.645 -0.7329 -0.4421  0.6904
14522SOL    HW145007   2.937   3.929   1.648 -1.6602  2.2419  0.0369
14522SOL    HW245008   2.819   3.907   1.555 -2.0662 -0.4703  1.0864
14523SOL     OW45009   2.648   6.036   6.593  0.0113  0.4294  0.1300
14523SOL    HW145010   2.625   5.985   6.671 -0.1406  1.2857  0.6531
14523SOL    HW245011   2.686   5.972   6.534 -3.1803 -1.0222 -0.5933
14524SOL     OW45012   5.958   1.088   3.823  0.2254  0.0050  0.2062
14524SOL    HW145013   6.038   1.046   3.790  0.2961 -1.2317  1.8605
14524SOL    HW245014   5.979   1.181   3.824  0.6772 -0.0186 -1.9174
14525SOL     OW45015   7.349   5.458   3.351 -0.6880  0.3881  0.1007
14525SOL    HW145016   7.272   5.479   3.403 -0.3281  1.2423  0.3080
14525SOL    HW245017   7.339   5.366   3.328 -0.0522 -0.4984  3.0715
14526SOL     OW45018   6.755   6.128   8.606  0.7018  0.6746 -0.3469
14526SOL    HW145019   6.739   6.137   8.512  2.7082 -0.3185 -0.8515
14526SOL    HW245020   6.690   6.064   8.635 -1.0525  2.2464 -0.6652
14527SOL     OW45021   0.115   0.110   7.330  0.2733  0.4316  0.0791
14527SOL    HW145022   0.114   0.195   7.374 -2.2392  1.5719 -1.8996
14527SOL    HW245023   0.074   0.051   7.393 -1.3848  1.5631  0.1348
14528SOL     OW45024   4.139   0.818   6.504  0.0655 -0.4750 -0.0759
14528SOL    HW145025   4.102   0.903   6.526 -0.3646 -0.7400  0.2368
14528SOL    HW245026   4.178   0.831   6.418  2.8384  0.9256  1.2367
14529SOL     OW45027   3.199   3.597   4.221  0.0599 -0.5011  0.2171
14529SOL    HW145028   3.256   3.523   4.202  0.1471 -0.2860 -0.3863
14529SOL    HW245029   3.137   3.599   4.148 -0.0844 -0.1174  0.3453
14530SOL     OW45030   3.832   2.070  10.623  0.8037 -0.2902  0.2233
14530SOL    HW145031   3.899   2.137  10.628  0.0644  0.4249  0.8397
14530SOL    HW245032   3.804   2.056  10.713  0.3980 -0.8638  0.0176
14531SOL     OW45033   5.496   6.037   5.175  0.7438  0.1091 -0.9274
14531SOL    HW145034   5.450   6.093   5.238 -1.7561 -1.2213 -1.4350
14531SOL    HW245035   5.536   5.969   5.229  0.7049  0.3520 -0.5875
14532SOL     OW45036   6.179   6.283   3.048  0.0017  0.5747 -0.0304
14532SOL    HW145037   6.141   6.195   3.049 -0.7780  0.8839  1.6275
14532SOL    HW245038   6.251   6.279   3.111 -0.0220  1.1294  0.0346
14533SOL     OW45039   5.898   3.916   7.985 -0.1421  0.1419  0.3337
14533SOL    HW145040   5.804   3.907   8.001 -0.2712  1.1086  0.1946
14533SOL    HW245041   5.914   3.862   7.908 -0.8974  1.1798 -0.5841
14534SOL     OW45042   6.598   0.597   4.404  0.2548 -0.0308  0.0953
14534SOL    HW145043   6.604   0.502   4.392  1.3683  0.1773 -1.3441
14534SOL    HW245044   6.506   0.618   4.388  0.3212 -0.6890 -1.3139
14535SOL     OW45045   7.430   5.726   2.114  0.3002  0.5199  0.2978
14535SOL    HW145046   7.419   5.803   2.169  2.0956  0.8869  0.2204
14535SOL    HW245047   7.484   5.757   2.041 -2.6949  0.2741 -2.2286
14536SOL     OW45048   5.697   6.601   2.904  0.1149 -0.2683  0.3313
14536SOL    HW145049   5.656   6.525   2.861 -0.4210  0.6299 -0.7890
14536SOL    HW245050   5.639   6.620   2.977 -0.4534 -0.1693 -0.1345
14537SOL     OW45051   7.884   5.152   1.632 -0.0984  0.4144  0.0391
14537SOL    HW145052   7.922   5.217   1.691  2.0421 -0.3763 -0.4002
14537SOL    HW245053   7.832   5.095   1.689  0.7162  0.5452  0.9395
14538SOL     OW45054   4.369   4.197   9.885 -0.5027  0.0284  0.0430
14538SOL    HW145055   4.300   4.227   9.826 -1.2763 -0.8293  0.4932
14538SOL    HW245056   4.348   4.237   9.969  0.7875  1.5245 -0.2998
14539SOL     OW45057   5.009   3.403   1.695 -0.2791  0.1013  0.0302
14539SOL    HW145058   5.087   3.360   1.659 -0.3535 -0.0113  0.0039
14539SOL    HW245059   5.037   3.493   1.711  0.3222 -0.3049  1.4599
14540SOL     OW45060   1.439   5.686  10.723  0.2106 -0.2980 -0.3638
14540SOL    HW145061   1.520   5.646  10.692  2.2016  1.9605  1.4775
14540SOL    HW245062   1.439   5.670  10.817 -1.9806 -0.9634 -0.4375
14541SOL     OW45063   1.717   2.032   9.306 -0.1093 -0.2002 -0.0496
14541SOL    HW145064   1.750   1.954   9.262  0.0350  0.5316 -1.2726
14541SOL    HW245065   1.691   2.001   9.393  0.9363 -1.3910 -0.1343
14542SOL     OW45066   5.856   1.356   5.197  0.0443  0.3507 -0.1212
14542SOL    HW145067   5.906   1.278   5.222 -1.8012 -0.7267  0.3752
14542SOL    HW245068   5.906   1.394   5.125  0.1461 -2.2345 -1.5306
14543SOL     OW45069   0.351   5.904   1.558  0.4242  0.0037  0.1088
14543SOL    HW145070   0.326   5.991   1.527 -0.8899 -0.1944  0.5702
14543SOL    HW245071   0.446   5.909   1.568  0.6484  0.7007 -1.9495
14544SOL     OW45072   3.063   0.715   6.549  0.3572 -0.2255  0.0511
14544SOL    HW145073   3.076   0.758   6.464 -0.5796  1.8962  0.8914
14544SOL    HW245074   3.015   0.635   6.529  1.4053 -0.4984 -1.5281
14545SOL     OW45075   4.651   2.041   2.468  0.8418 -0.8485  0.2553
14545SOL    HW145076   4.629   2.075   2.554 -0.8254  0.5031 -0.6401
14545SOL    HW245077   4.706   2.110   2.429  0.8672 -1.0580 -0.0794
14546SOL     OW45078   3.237   2.336   8.837 -0.2492  0.5462  0.0217
14546SOL    HW145079   3.274   2.349   8.924 -0.4153  0.3289  0.1256
14546SOL    HW245080   3.249   2.242   8.820  0.1998  0.6715 -0.3791
14547SOL     OW45081   0.258   4.052  11.629 -0.0413 -0.0044  0.4405
14547SOL    HW145082   0.323   4.082  11.693  1.7413 -0.5861 -1.0112
14547SOL    HW245083   0.176   4.092  11.659  1.0712  1.3065  1.9845
14548SOL     OW45084   2.553   6.743   3.955 -0.2657  0.6325  0.4322
14548SOL    HW145085   2.641   6.725   3.921 -0.0809  0.5358  0.9599
14548SOL    HW245086   2.525   6.660   3.993 -1.3607  0.1072 -1.4041
14549SOL     OW45087   2.842   5.357   0.516 -0.3340 -0.1889  0.1066
14549SOL    HW145088   2.748   5.375   0.511 -0.3021  0.0369  0.2804
14549SOL    HW245089   2.851   5.295   0.588 -0.0803  1.8283  1.8894
14550SOL     OW45090   1.259   7.519  12.035  0.2626 -0.0904  0.2351
14550SOL    HW145091   1.199   7.583  11.998  0.7625  0.1529 -0.1688
14550SOL    HW245092   1.207   7.472  12.100  0.5086  2.5015  2.5303
14551SOL     OW45093   4.731   1.995   9.861  0.5051  0.3105  0.5783
14551SOL    HW145094   4.650   2.009   9.811 -0.1594  2.0526  2.0242
14551SOL    HW245095   4.799   2.038   9.810  0.0026  1.2816  0.7162
14552SOL     OW45096   3.168   4.739  11.222  0.0621 -0.8225 -0.0754
14552SOL    HW145097   3.084   4.700  11.200  0.1841 -0.3385 -1.4785
14552SOL    HW245098   3.233   4.674  11.196  0.1454 -1.1136  0.8209
14553SOL     OW45099   0.809   7.769   9.886 -0.3043 -0.3880 -0.1485
14553SOL    HW145100   0.886   7.822   9.866 -0.7476  0.0930 -0.6153
14553SOL    HW245101   0.840   7.678   9.878  0.5371 -0.2229  0.9657
14554SOL     OW45102   1.674   0.704   2.228 -0.1748  0.1880 -0.1743
14554SOL    HW145103   1.721   0.751   2.298  0.2435 -0.0488 -0.2891
14554SOL    HW245104   1.744   0.663   2.177 -0.4966  0.1391 -0.5723
14555SOL     OW45105   7.708   7.300   8.627  0.3867 -0.1439  0.3636
14555SOL    HW145106   7.758   7.330   8.703 -0.1370 -0.3506  0.7976
14555SOL    HW245107   7.769   7.306   8.554  1.3629 -1.3001  1.0427
14556SOL     OW45108   2.062   3.158  10.407  0.4118  0.3522 -0.0548
14556SOL    HW145109   1.970   3.152  10.432  0.2348  0.9294 -0.5356
14556SOL    HW245110   2.094   3.068  10.410 -0.3465  0.0560 -0.5415
14557SOL     OW45111   7.798   4.379  12.038  0.1662 -0.3011 -0.3082
14557SOL    HW145112   7.889   4.398  12.017  1.1622 -2.4003  1.7538
14557SOL    HW245113   7.774   4.308  11.977 -0.1950  0.3828 -0.9836
14558SOL     OW45114   0.557   4.336   1.391  0.4428 -0.3516 -0.0292
14558SOL    HW145115   0.604   4.261   1.354 -1.0475 -1.3472  0.0375
14558SOL    HW245116   0.604   4.356   1.472 -0.5410 -2.8016  1.2489
14559SOL     OW45117   1.469   5.300   1.797 -0.0967  0.1086  0.2453
14559SOL    HW145118   1.415   5.376   1.777  0.9801  0.4578 -1.6379
14559SOL    HW245119   1.418   5.226   1.765  0.6881  0.4848 -2.0707
14560SOL     OW45120   2.942   4.936   0.702  0.0554 -0.4952 -0.0435
14560SOL    HW145121   2.938   4.910   0.794 -2.0784 -0.0901  0.0175
14560SOL    HW245122   3.021   4.990   0.697  0.6847 -1.2185  1.3446
14561SOL     OW45123   7.638   2.470   1.861  0.2349  0.3821  0.2604
14561SOL    HW145124   7.548   2.441   1.877 -0.1388  0.7670 -1.0867
14561SOL    HW245125   7.636   2.512   1.775  1.5924  0.8910  0.4470
14562SOL     OW45126   6.539   6.710   7.512 -0.1864 -0.1984 -0.1353
14562SOL    HW145127   6.517   6.658   7.590 -0.0177  0.9469  0.6922
14562SOL    HW245128   6.467   6.772   7.503  1.1991  1.6734  0.9053
14563SOL     OW45129   1.381   0.200   3.287 -0.5121  0.1580 -0.3826
14563SOL    HW145130   1.327   0.207   3.366 -1.0244  2.3442 -0.8472
14563SOL    HW245131   1.374   0.109   3.260  0.2070 -0.8331  2.4336
14564SOL     OW45132   6.993   7.928   3.348 -0.6656  0.2541 -0.3222
14564SOL    HW145133   6.993   7.832   3.349 -1.4394  0.2539 -0.0546
14564SOL    HW245134   6.974   7.952   3.439  1.3150  0.6841  0.0416
14565SOL     OW45135   5.367   4.025   3.623 -0.1022 -0.1024 -0.5592
14565SOL    HW145136   5.393   4.052   3.535 -1.3046  2.0467 -0.3379
14565SOL    HW245137   5.284   3.979   3.611  1.5854 -3.3789 -0.8536
14566SOL     OW45138   6.688   0.165   8.030  0.3584  0.4177 -0.2737
14566SOL    HW145139   6.680   0.077   8.067 -1.0348  0.6458  0.0363
14566SOL    HW245140   6.650   0.223   8.097 -0.5709  1.0269 -1.2888
14567SOL     OW45141   6.324   6.612  12.101  0.0991  0.0194  0.1481
14567SOL    HW145142   6.389   6.610  12.031  1.3180  0.6193  1.2293
14567SOL    HW245143   6.316   6.521  12.130 -1.6059 -0.5206 -1.7788
14568SOL     OW45144   3.805   5.041  11.830 -0.1888  0.2196 -0.1737
14568SOL    HW145145   3.829   5.026  11.738 -1.0537  1.2099 -0.5787
14568SOL    HW245146   3.716   5.006  11.838 -0.1989  0.3318  0.2267
14569SOL     OW45147   5.753   2.974   5.315  0.0513 -0.4673 -0.3048
14569SOL    HW145148   5.801   3.044   5.271  2.1741 -0.1942  2.2076
14569SOL    HW245149   5.676   3.016   5.352  0.1359  0.0342 -0.6865
14570SOL     OW45150   0.673   4.580   8.960 -0.1027  0.0754 -0.6754
14570SOL    HW145151   0.592   4.540   8.928 -0.0002  0.1442 -1.0176
14570SOL    HW245152   0.679   4.550   9.051 -2.2907  2.7967  0.5011
14571SOL     OW45153   0.931   3.217   6.431  0.1422 -0.4304  0.3674
14571SOL    HW145154   0.892   3.164   6.501  1.0849  0.7426  1.8270
14571SOL    HW245155   0.859   3.270   6.397 -0.2568 -0.7830  0.6634
14572SOL     OW45156   0.826   2.914   6.161  0.0171 -0.6746 -0.1017
14572SOL    HW145157   0.896   2.942   6.102 -0.0441  1.2006  0.6532
14572SOL    HW245158   0.754   2.974   6.143  0.5804  1.1567  2.9958
14573SOL     OW45159   6.545   5.285   9.808 -0.1466 -0.0077 -0.2434
14573SOL    HW145160   6.491   5.283   9.728 -1.2115  0.9426  0.4247
14573SOL    HW245161   6.551   5.193   9.835  2.8290 -0.8320 -3.0543
14574SOL     OW45162   0.633   0.897   3.855 -0.4420  0.2344 -0.2887
14574SOL    HW145163   0.619   0.802   3.859 -0.7457  0.3120  0.6535
14574SOL    HW245164   0.555   0.934   3.897 -0.4296  0.9126 -0.8501
14575SOL     OW45165   3.931   5.055   2.307  0.1705  0.5127  0.2863
14575SOL    HW145166   3.852   5.015   2.343  1.0836  0.0740  1.9084
14575SOL    HW245167   3.919   5.149   2.320  0.4092  0.3746  1.6681
14576SOL     OW45168   0.574   0.352  11.254 -0.1677  0.5284 -0.2489
14576SOL    HW145169   0.595   0.289  11.322  0.2211  0.1923 -0.6717
14576SOL    HW245170   0.572   0.437  11.299 -2.8129  0.0119  0.7438
14577SOL     OW45171   0.807   7.618  10.458  0.0903  0.3649  0.2048
14577SOL    HW145172   0.823   7.637  10.366  1.2455  0.0734  0.3334
14577SOL    HW245173   0.869   7.548  10.479 -1.1482 -0.5860  0.8352
14578SOL     OW45174   6.928   5.578   6.331  0.5983 -0.1015 -0.1901
14578SOL    HW145175   6.983   5.656   6.327  2.7331 -1.5885 -1.3385
14578SOL    HW245176   6.920   5.549   6.241  4.0353 -3.8828  0.4177
14579SOL     OW45177   7.860   3.643   8.839 -0.4305 -0.4844 -0.2723
14579SOL    HW145178   7.902   3.728   8.830 -0.5232 -0.6300 -2.8590
14579SOL    HW245179   7.855   3.628   8.934  1.2636  1.5140  0.1981
14580SOL     OW45180   7.830   7.253   5.743  0.3316 -0.8289 -0.3811
14580SOL    HW145181   7.796   7.176   5.790 -0.5730  1.0264  2.2051
14580SOL    HW245182   7.912   7.274   5.786 -0.4162  0.7980  0.3373
14581SOL     OW45183   0.716   2.532   6.363 -0.5710 -0.3206  0.7328
14581SOL    HW145184   0.695   2.534   6.456  1.7651 -1.7539  1.3613
14581SOL    HW245185   0.667   2.606   6.326 -0.8968  0.8106  3.2280
14582SOL     OW45186   3.592   6.301   8.423  0.3304 -0.0947  0.1402
14582SOL    HW145187   3.628   6.220   8.459  1.7984  0.8789  0.9682
14582SOL    HW245188   3.624   6.303   8.333 -0.6298 -0.9537 -0.2314
14583SOL     OW45189   4.141   2.553   1.430 -0.4452  0.1162 -0.0738
14583SOL    HW145190   4.143   2.608   1.509  0.6498  0.0580 -0.0470
14583SOL    HW245191   4.064   2.583   1.382 -0.1341  1.3777  0.1580
14584SOL     OW45192   5.657   1.143   4.311 -0.2956 -0.3527  0.5296
14584SOL    HW145193   5.719   1.115   4.378  0.2992 -1.9094 -0.6145
14584SOL    HW245194   5.573   1.146   4.356  0.3026 -0.0208  1.6613
14585SOL     OW45195   7.937   1.114   0.865  0.5857 -0.2629  0.1273
14585SOL    HW145196   7.917   1.189   0.921 -0.4468 -0.0767 -0.4766
14585SOL    HW245197   7.994   1.150   0.797  2.1935 -0.5743  1.2444
14586SOL     OW45198   1.812   1.671   8.018  0.2587  0.4181 -0.1199
14586SOL    HW145199   1.884   1.676   7.956  1.7646 -0.4732  1.4753
14586SOL    HW245200   1.833   1.597   8.074 -1.9776  0.0429  0.3481
14587SOL     OW45201   2.701   2.532  11.910 -0.3720 -0.0369 -0.1943
14587SOL    HW145202   2.655   2.502  11.988  0.2162  0.4271  0.3349
14587SOL    HW245203   2.711   2.453  11.856  0.0336 -0.5453  0.6066
14588SOL     OW45204   6.615   2.999   0.731 -0.0042  0.2730  0.0461
14588SOL    HW145205   6.575   3.079   0.695 -1.3944 -0.2462  0.3894
14588SOL    HW245206   6.580   2.928   0.677  0.5902 -0.1879  0.2533
14589SOL     OW45207   5.535   2.567   7.110  0.0664  0.1227  0.0698
14589SOL    HW145208   5.553   2.559   7.204  0.8934 -0.5837 -0.1299
14589SOL    HW245209   5.475   2.641   7.103 -0.3055 -0.0584  1.1880
14590SOL     OW45210   2.421   2.811  11.955  1.1601  0.0940  0.0825
14590SOL    HW145211   2.354   2.748  11.982 -0.4218  1.4842 -0.4255
14590SOL    HW245212   2.466   2.768  11.882 -1.0694  0.1425 -1.4531
14591SOL     OW45213   1.311   2.082   2.467 -0.6476 -0.1528  0.1994
14591SOL    HW145214   1.291   2.173   2.488 -1.4125 -0.4223  0.7014
14591SOL    HW245215   1.226   2.043   2.447 -0.1834 -0.4520 -1.2774
14592SOL     OW45216   5.517   6.879   8.874  0.2632  0.1054  0.1625
14592SOL    HW145217   5.479   6.914   8.794 -0.6021  0.1891  0.6048
14592SOL    HW245218   5.575   6.808   8.844 -0.6744 -0.4061 -0.4788
14593SOL     OW45219   7.017   5.870  11.344  0.0391 -0.2938 -0.9861
14593SOL    HW145220   6.987   5.812  11.275  0.4419 -0.0529 -1.3636
14593SOL    HW245221   6.939   5.923  11.365  0.0540 -0.0120 -1.6161
14594SOL     OW45222   5.724   5.139   5.009  0.4333  0.0396  0.7941
14594SOL    HW145223   5.646   5.168   4.961  1.7603  0.3138 -1.2942
14594SOL    HW245224   5.690   5.082   5.078 -1.7489  1.5444  1.0666
14595SOL     OW45225   1.060   5.827   8.594  0.3826  0.3386  0.6184
14595SOL    HW145226   1.140   5.822   8.543  0.5650 -0.8097  0.9860
14595SOL    HW245227   0.990   5.827   8.529  0.6374 -0.2718  0.3371
14596SOL     OW45228   0.144   1.144   4.245 -0.0078  0.0719 -0.0590
14596SOL    HW145229   0.088   1.218   4.221 -0.1128  0.0512  0.1200
14596SOL    HW245230   0.164   1.157   4.338 -0.1020 -0.1730 -0.0032
14597SOL     OW45231   2.116   3.452   0.951  0.4583  0.1245 -0.1863
14597SOL    HW145232   2.071   3.370   0.932 -0.5266  0.0953  2.0028
14597SOL    HW245233   2.055   3.520   0.921  0.3355  0.0737 -0.0516
14598SOL     OW45234   6.049   1.457   4.942 -0.0433  0.3668  0.4027
14598SOL    HW145235   6.052   1.412   4.857 -1.4060  0.4171  0.3137
14598SOL    HW245236   6.136   1.441   4.980  0.2089 -0.5915 -0.5195
14599SOL     OW45237   3.196   1.478   4.086 -0.7465 -0.0366 -0.0945
14599SOL    HW145238   3.278   1.525   4.073 -0.1549 -0.4066  1.9199
14599SOL    HW245239   3.158   1.517   4.165 -1.7144 -0.9441 -0.0839
14600SOL     OW45240   0.706   5.032   1.998 -0.2632  0.5307  0.5618
14600SOL    HW145241   0.651   5.089   2.053  0.2690  0.8201  0.8093
14600SOL    HW245242   0.718   4.953   2.050 -1.7291 -0.1748 -0.1532
14601SOL     OW45243   5.085   6.622   3.343  0.0327 -0.2771 -0.3141
14601SOL    HW145244   5.115   6.649   3.256  0.6273 -0.6675 -0.2385
14601SOL    HW245245   5.084   6.703   3.394 -1.3934  0.1498 -0.9761
14602SOL     OW45246   3.855   1.073   4.917  0.1011  0.2800  0.0703
14602SOL    HW145247   3.823   1.060   4.828  0.4071  0.4512 -0.0703
14602SOL    HW245248   3.871   0.985   4.950  0.0026  0.2160 -0.0516
14603SOL     OW45249   7.926   6.783   3.293  0.0415 -0.2916  0.2456
14603SOL    HW145250   7.901   6.755   3.205 -0.8323  0.9989  0.0433
14603SOL    HW245251   7.980   6.860   3.279 -0.8688  0.4809  0.8365
14604SOL     OW45252   3.486   2.923   7.283  0.2396  0.5996 -0.1942
14604SOL    HW145253   3.416   2.909   7.347  0.9341 -1.2027  0.2417
14604SOL    HW245254   3.499   3.018   7.281 -0.5976  0.7802  1.4706
14605SOL     OW45255   1.689   4.520   2.550 -0.5503 -0.8042  0.8174
14605SOL    HW145256   1.680   4.433   2.511 -1.7835  0.4640 -2.0274
14605SOL    HW245257   1.770   4.554   2.514 -1.5076  0.2475 -0.4467
14606SOL     OW45258   6.959   3.058   5.201  0.5176 -0.4155  0.6189
14606SOL    HW145259   6.866   3.044   5.181  0.3511 -0.6328  1.4651
14606SOL    HW245260   6.991   3.116   5.132  0.0549 -1.3044 -0.3667
14607SOL     OW45261   4.643   4.152   1.490 -0.1592  0.0590  0.0481
14607SOL    HW145262   4.675   4.151   1.580  0.9216  0.7328 -0.3094
14607SOL    HW245263   4.703   4.211   1.444  0.3544 -1.5952 -1.5083
14608SOL     OW45264   4.953   0.857  10.777 -0.7510  0.6369 -0.1023
14608SOL    HW145265   4.863   0.834  10.798 -0.2134 -0.2750  1.4673
14608SOL    HW245266   4.980   0.792  10.712 -0.1478 -1.5454  2.1652
14609SOL     OW45267   2.623   6.373  10.397  0.0405 -0.6732 -0.7514
14609SOL    HW145268   2.564   6.430  10.349 -1.5776 -1.0168  0.7250
14609SOL    HW245269   2.592   6.285  10.378  1.3411 -0.9965 -1.5060
14610SOL     OW45270   5.523   3.895   4.775 -0.0808 -0.0724  0.0987
14610SOL    HW145271   5.534   3.988   4.752  1.2864 -0.5207 -1.2076
14610SOL    HW245272   5.470   3.859   4.704  0.1963 -0.4926  0.1050
14611SOL     OW45273   1.912   3.928   3.008  0.3685 -0.3476  0.7332
14611SOL    HW145274   1.871   3.997   2.956  0.0728 -0.1551  1.2205
14611SOL    HW245275   1.889   3.847   2.962 -1.0089 -0.2967  1.2702
14612SOL     OW45276   2.052   0.776   3.968 -0.4168 -0.1019  0.6425
14612SOL    HW145277   2.116   0.842   3.944  0.7500 -1.4799 -0.2152
14612SOL    HW245278   1.980   0.789   3.905  0.5766 -0.7219 -0.6727
14613SOL     OW45279   5.421   7.021   0.196 -0.3867 -0.4375  0.3259
14613SOL    HW145280   5.327   7.006   0.192 -0.5041  0.3344 -0.0925
14613SOL    HW245281   5.446   6.999   0.285 -0.9060 -0.9636  0.3441
14614SOL     OW45282   5.173   2.894   1.309 -0.2842 -1.2901 -0.1486
14614SOL    HW145283   5.165   2.969   1.369  1.3609 -1.1433 -0.0582
14614SOL    HW245284   5.092   2.895   1.259 -1.3865 -0.9431  1.5356
14615SOL     OW45285   0.947   7.303   0.004 -0.0692 -0.4482  0.3469
14615SOL    HW145286   1.006   7.306  -0.071  1.7655 -1.0245  1.6945
14615SOL    HW245287   0.981   7.232   0.059 -1.4513 -0.1689  1.6534
14616SOL     OW45288   5.734   1.147   2.987 -0.4646 -0.2785  0.1465
14616SOL    HW145289   5.771   1.085   3.049 -1.2097  0.0656  0.9566
14616SOL    HW245290   5.805   1.164   2.924  0.5125 -0.1521  1.2533
14617SOL     OW45291   6.950   3.606   9.177  0.2481 -0.2071 -0.3555
14617SOL    HW145292   6.942   3.648   9.091 -0.7696 -3.7271 -2.2111
14617SOL    HW245293   6.894   3.657   9.235 -0.9832  0.9055 -2.4148
14618SOL     OW45294   4.933   3.492   8.251  0.2422  0.4827 -0.0878
14618SOL    HW145295   4.933   3.511   8.344 -1.3940  2.4703 -0.4101
14618SOL    HW245296   4.947   3.398   8.245 -1.5457 -0.0088  2.2679
14619SOL     OW45297   6.619   0.439   9.090 -0.1197  0.1061  0.1919
14619SOL    HW145298   6.690   0.485   9.045 -0.3896  0.1258 -0.2215
14619SOL    HW245299   6.543   0.451   9.033  0.0331 -1.7675 -0.4776
14620SOL     OW45300   4.870   4.992   7.826  0.5047  0.4551 -0.3449
14620SOL    HW145301   4.943   4.986   7.764 -0.0493 -0.2225 -0.9558
14620SOL    HW245302   4.900   5.052   7.894  1.3044  0.8478 -1.0340
14621SOL     OW45303   1.075   7.513  10.503 -0.4069  0.1210 -0.0830
14621SOL    HW145304   1.075   7.551  10.591  0.8222 -1.5530  0.6929
14621SOL    HW245305   1.039   7.425  10.515 -2.2689  0.5771 -1.6642
14622SOL     OW45306   0.125   2.448   7.916  0.3417  0.8596 -0.4168
14622SOL    HW145307   0.068   2.520   7.944  0.4345 -0.2471  3.1617
14622SOL    HW245308   0.214   2.483   7.923  0.3114  0.9842 -0.6512
14623SOL     OW45309   0.703   2.269  11.237  0.0993 -0.1351 -0.1378
14623SOL    HW145310   0.663   2.338  11.289 -1.0910  0.1139 -1.3281
14623SOL    HW245311   0.697   2.190  11.291  2.3386  0.7965  1.6366
14624SOL     OW45312   4.186   1.219   6.799 -0.3013  0.4486  0.1193
14624SOL    HW145313   4.120   1.262   6.854 -1.7532 -0.8990 -0.4888
14624SOL    HW245314   4.135   1.167   6.737  1.3478 -0.6419 -0.3857
14625SOL     OW45315   2.206   1.105   6.928  0.4601 -0.2606  0.3371
14625SOL    HW145316   2.283   1.107   6.986  0.3762 -0.0103  0.4434
14625SOL    HW245317   2.141   1.055   6.977  0.6372 -0.6891  0.1408
14626SOL     OW45318   3.028   0.510   0.743  0.1635 -0.9070 -0.2020
14626SOL    HW145319   3.065   0.484   0.828 -0.6151  0.0282  0.4500
14626SOL    HW245320   2.942   0.470   0.741 -0.8376  1.0527  0.5867
14627SOL     OW45321   5.317   0.480   1.693 -0.0824 -0.0929 -0.1574
14627SOL    HW145322   5.335   0.386   1.703  3.1658  0.5296  1.0651
14627SOL    HW245323   5.274   0.504   1.776 -0.6240 -0.4121 -0.3383
14628SOL     OW45324   3.415   2.762   7.722 -0.6290  0.0123  0.0908
14628SOL    HW145325   3.403   2.678   7.768  0.1546 -0.8509 -1.1961
14628SOL    HW245326   3.482   2.743   7.656  1.0654  2.1851  1.0411
14629SOL     OW45327   7.587   6.741  10.911  0.5934 -0.2138  0.4779
14629SOL    HW145328   7.581   6.729  11.005  1.2723 -0.2751  0.5183
14629SOL    HW245329   7.681   6.740  10.892  0.7292  3.2616  0.2693
14630SOL     OW45330   2.080   1.725  12.199 -0.3086  0.3486 -0.4396
14630SOL    HW145331   2.034   1.664  12.255  1.4942 -2.1363 -1.4789
14630SOL    HW245332   2.096   1.802  12.254 -2.5162 -0.1209  0.9537
14631SOL     OW45333   6.252   3.216  10.897 -0.5832 -0.4753  0.6402
14631SOL    HW145334   6.313   3.156  10.940 -0.1229  0.1503  0.8827
14631SOL    HW245335   6.192   3.243  10.967  0.4721  0.9364  1.0653
14632SOL     OW45336   3.817   2.363   7.992 -0.8901  0.1756  0.1021
14632SOL    HW145337   3.797   2.313   8.071  0.7098 -0.0290  0.4137
14632SOL    HW245338   3.882   2.427   8.020 -2.8329  2.4517 -0.2985
14633SOL     OW45339   5.704   1.277   3.804  0.1649  0.3404  0.1264
14633SOL    HW145340   5.718   1.182   3.798 -0.3263  0.2451  0.4010
14633SOL    HW245341   5.763   1.306   3.873 -1.7417 -0.2448  2.1339
14634SOL     OW45342   5.678   0.591  10.703 -0.1340 -0.4152  0.0511
14634SOL    HW145343   5.722   0.628  10.780 -1.2199 -0.2635  0.6070
14634SOL    HW245344   5.632   0.514  10.736  0.2825 -0.9829 -0.6675
14635SOL     OW45345   7.606   0.221   3.221  0.0171 -0.6979 -0.2638
14635SOL    HW145346   7.628   0.314   3.233 -1.1089 -0.4890  0.3073
14635SOL    HW245347   7.616   0.207   3.127  0.5179 -0.0893 -0.3112
14636SOL     OW45348   3.156   5.812   5.228 -0.5566 -0.0707 -0.3506
14636SOL    HW145349   3.196   5.861   5.156 -2.5798  1.8677 -0.2631
14636SOL    HW245350   3.220   5.817   5.299  1.1165 -1.3100 -1.6846
14637SOL     OW45351   6.723   1.276   3.038  0.5673 -0.2163  0.0813
14637SOL    HW145352   6.700   1.281   2.945  2.6007 -1.9076 -0.5925
14637SOL    HW245353   6.786   1.347   3.051  2.0677 -1.3844 -0.4812
14638SOL     OW45354   7.564   6.978   1.723 -0.6047  0.1138 -0.1265
14638SOL    HW145355   7.531   7.030   1.796  0.3172 -1.0761  1.1847
14638SOL    HW245356   7.625   7.036   1.677  0.9496  0.0417  1.7210
14639SOL     OW45357   6.572   6.737   4.401 -0.0258 -0.2982  0.0277
14639SOL    HW145358   6.510   6.712   4.332 -1.5682  1.0812  0.8383
14639SOL    HW245359   6.522   6.732   4.482 -0.4191  4.5621  0.3679
14640SOL     OW45360   5.210   6.513   3.965  0.5991  0.1849  0.0891
14640SOL    HW145361   5.124   6.497   4.003  0.2956 -0.7754 -0.9406
14640SOL    HW245362   5.259   6.558   4.034 -0.4937  0.1005  0.9463
14641SOL     OW45363   0.801   6.796   1.030  0.0410  0.6276  0.4793
14641SOL    HW145364   0.756   6.720   0.993  0.9344 -0.4996  1.6088
14641SOL    HW245365   0.851   6.832   0.957  1.5049 -1.3352  0.4389
14642SOL     OW45366   2.837   1.505   3.534 -0.2386 -0.3572 -0.1183
14642SOL    HW145367   2.826   1.416   3.500  0.4764 -1.4576  2.2755
14642SOL    HW245368   2.798   1.502   3.621 -0.4274  1.7915 -0.0782
14643SOL     OW45369   5.166   7.261   0.000 -0.0913 -0.1980  0.0095
14643SOL    HW145370   5.236   7.292  -0.057 -1.4604 -0.0244 -1.6644
14643SOL    HW245371   5.144   7.174  -0.032 -1.1782  0.0719 -0.0473
14644SOL     OW45372   6.965   4.638   5.033 -0.5197 -0.1412 -0.1951
14644SOL    HW145373   6.950   4.618   5.125 -0.3522  1.5954  0.2402
14644SOL    HW245374   6.935   4.729   5.022 -0.8371 -0.4117 -1.9253
14645SOL     OW45375   6.088   4.292   2.521 -0.3701  0.0209 -0.1704
14645SOL    HW145376   6.082   4.384   2.496 -0.5901  0.0093 -0.1567
14645SOL    HW245377   6.011   4.251   2.483  0.0351 -0.2789 -0.6954
14646SOL     OW45378   7.428   4.124   7.458 -0.6704  0.0092  0.0664
14646SOL    HW145379   7.444   4.036   7.491 -1.7053 -0.5963 -0.9662
14646SOL    HW245380   7.338   4.123   7.427 -0.7261  1.4565  0.0835
14647SOL     OW45381   0.061   1.704   4.598  0.0382  0.2802  0.3270
14647SOL    HW145382   0.127   1.662   4.653  1.1951 -0.1999 -1.3739
14647SOL    HW245383   0.061   1.654   4.517 -2.6011  0.1347  0.3319
14648SOL     OW45384   4.609   3.982   2.655 -0.4136 -0.2779 -0.2802
14648SOL    HW145385   4.585   4.036   2.730 -0.5619 -0.9310  0.1578
14648SOL    HW245386   4.588   4.035   2.578 -0.6917  0.2189  0.1351
14649SOL     OW45387   0.213   3.970  12.305 -0.5071 -0.5553  0.5391
14649SOL    HW145388   0.297   3.927  12.287 -0.6570  0.0031 -1.7614
14649SOL    HW245389   0.147   3.905  12.278 -0.7395  0.3868 -1.3429
14650SOL     OW45390   2.680   5.134   6.992 -0.2680  0.1936 -0.4617
14650SOL    HW145391   2.742   5.090   7.050 -0.6171  0.7505  0.3388
14650SOL    HW245392   2.596   5.092   7.011 -0.6338  1.2923  0.4163
14651SOL     OW45393   7.944   0.918   3.547 -0.1200  0.4291 -0.1005
14651SOL    HW145394   7.987   0.867   3.616  1.5517  1.1803 -0.5301
14651SOL    HW245395   7.888   0.980   3.595 -2.1602 -1.6806  0.4216
14652SOL     OW45396   0.673   3.026  12.336  0.1742 -0.0133 -0.2709
14652SOL    HW145397   0.745   2.963  12.332 -0.5254 -0.8411 -0.1585
14652SOL    HW245398   0.633   3.010  12.421  0.4213  1.0862  0.0580
14653SOL     OW45399   2.252   7.612  10.877 -0.1600  0.4320  0.4482
14653SOL    HW145400   2.329   7.574  10.835  0.3252  0.4496  1.3047
14653SOL    HW245401   2.284   7.691  10.919 -0.4051 -0.1332  1.7375
14654SOL     OW45402   5.019   1.026   0.654 -0.3005  0.5026  0.1773
14654SOL    HW145403   5.106   0.996   0.627 -0.2043  1.1463 -0.2564
14654SOL    HW245404   4.964   1.015   0.576 -0.9069 -0.9862  0.7829
14655SOL     OW45405   2.342   4.914  12.268 -0.0355 -0.0110  0.4522
14655SOL    HW145406   2.367   5.006  12.277  1.9300 -0.5239  0.8807
14655SOL    HW245407   2.270   4.902  12.330  0.8773  0.8610  1.7583
14656SOL     OW45408   0.920   2.670  11.003  0.2148  0.5530  0.0211
14656SOL    HW145409   0.914   2.725  11.081 -0.0416 -1.1481  1.2426
14656SOL    HW245410   0.922   2.581  11.036  2.5342 -0.1673 -1.8177
14657SOL     OW45411   1.536   1.071   9.309  0.3092 -0.0023  0.1960
14657SOL    HW145412   1.603   1.023   9.262 -0.0827 -0.6320  0.2654
14657SOL    HW245413   1.566   1.073   9.400 -0.2048 -1.1254  0.4157
14658SOL     OW45414   1.446   2.861   1.066  0.0315 -0.3873 -0.0757
14658SOL    HW145415   1.510   2.871   1.137 -1.1747  0.9190  0.8826
14658SOL    HW245416   1.385   2.933   1.079  0.0110  0.1712 -2.7293
14659SOL     OW45417   2.257   0.575   9.389 -0.1058 -0.0137 -0.0789
14659SOL    HW145418   2.341   0.615   9.363  0.1906 -1.5738 -1.7340
14659SOL    HW245419   2.191   0.641   9.366  0.5660  0.7168  0.0330
14660SOL     OW45420   2.710   5.520  10.007  0.3906 -0.6314 -0.5604
14660SOL    HW145421   2.676   5.472   9.931  1.0818 -2.0951  0.0033
14660SOL    HW245422   2.720   5.452  10.074 -1.6982  0.8540  1.3908
14661SOL     OW45423   7.480   0.571   6.292  0.3215 -0.6405  0.5566
14661SOL    HW145424   7.528   0.616   6.361 -0.1883  0.3085  0.3058
14661SOL    HW245425   7.461   0.639   6.228  0.6149 -1.4651 -0.4343
14662SOL     OW45426   6.800   7.953   5.889 -0.1693  0.3263  0.2077
14662SOL    HW145427   6.872   7.894   5.912 -0.7605 -0.7968 -0.7011
14662SOL    HW245428   6.843   8.032   5.857  0.6464  0.3414  1.3062
14663SOL     OW45429   6.548   4.546   5.021 -0.0751  0.2810 -0.3008
14663SOL    HW145430   6.527   4.472   4.963 -0.3554 -0.5926  0.8867
14663SOL    HW245431   6.622   4.515   5.073 -1.2243  0.2006  1.3392
14664SOL     OW45432   6.616   7.757   4.834  0.2142  0.0740 -0.2519
14664SOL    HW145433   6.637   7.845   4.803  0.2689  0.2581  0.2975
14664SOL    HW245434   6.571   7.771   4.918  1.7940 -0.4662  0.7370
14665SOL     OW45435   4.752   1.517   7.648  0.2622  0.4957 -0.2990
14665SOL    HW145436   4.821   1.522   7.714  0.6141 -1.7938 -0.4326
14665SOL    HW245437   4.679   1.565   7.686 -0.2036 -2.2182  2.6634
14666SOL     OW45438   1.249   4.675   6.757 -0.0634  0.2492  0.0860
14666SOL    HW145439   1.253   4.768   6.776 -0.8875  0.3657 -0.2889
14666SOL    HW245440   1.163   4.647   6.790 -0.7113  0.0630 -1.6708
14667SOL     OW45441   3.527   4.054   6.409  0.2756 -0.1374 -0.6746
14667SOL    HW145442   3.537   4.079   6.501 -1.7653 -1.1321 -0.1223
14667SOL    HW245443   3.535   3.959   6.409 -0.6933 -0.2298 -1.3831
14668SOL     OW45444   1.184   5.301   9.852  0.0395 -0.2963  0.0539
14668SOL    HW145445   1.190   5.290   9.757  0.3615 -0.0231  0.0392
14668SOL    HW245446   1.091   5.288   9.872 -0.3824  1.5712 -0.5532
14669SOL     OW45447   3.153   7.946   3.693 -0.2541 -0.4724  0.1646
14669SOL    HW145448   3.063   7.944   3.662 -0.0508  1.7056 -0.7158
14669SOL    HW245449   3.205   7.952   3.612  0.8037 -2.8609  0.5770
14670SOL     OW45450   7.955   0.232  11.798  0.0099  0.4512 -0.5976
14670SOL    HW145451   7.918   0.177  11.867  0.6849  0.2984 -0.3444
14670SOL    HW245452   7.930   0.189  11.716 -0.5374  0.4668 -0.4425
14671SOL     OW45453   5.623   3.322   8.413 -0.1264 -0.1677  0.3709
14671SOL    HW145454   5.717   3.334   8.420 -0.4202  1.4600  2.5865
14671SOL    HW245455   5.585   3.398   8.456 -2.4150 -2.0978  2.0825
14672SOL     OW45456   5.558   1.262   8.357  0.7538  0.9232 -0.2510
14672SOL    HW145457   5.517   1.277   8.272 -0.7225 -0.2845  0.2114
14672SOL    HW245458   5.503   1.196   8.399  2.1579  0.5915  1.1510
14673SOL     OW45459   3.281   4.775   6.318  0.2561 -0.1541  0.0966
14673SOL    HW145460   3.283   4.823   6.235  0.6517 -1.2514 -0.5502
14673SOL    HW245461   3.268   4.684   6.292  2.1944 -0.7652  1.1076
14674SOL     OW45462   0.010   0.439   7.730  0.0935 -0.0000  0.3052
14674SOL    HW145463  -0.086   0.440   7.724  0.1747 -0.4181 -1.4299
14674SOL    HW245464   0.032   0.348   7.748  0.1487  0.2627  1.6928
14675SOL     OW45465   6.642   7.038  11.269 -0.5562  0.3639  0.5658
14675SOL    HW145466   6.621   6.946  11.253  0.1086  0.5935 -2.2281
14675SOL    HW245467   6.568   7.071  11.320 -2.5715 -0.9340 -1.3459
14676SOL     OW45468   0.936   4.546   7.252 -0.2686 -0.3874  0.2080
14676SOL    HW145469   0.858   4.574   7.298 -0.5242 -1.8558  0.7242
14676SOL    HW245470   0.976   4.627   7.219 -2.2847  0.3516 -0.5587
14677SOL     OW45471   2.854   6.356   6.671  0.9685  0.7832 -0.1670
14677SOL    HW145472   2.807   6.281   6.708 -0.3296  1.5677 -0.1974
14677SOL    HW245473   2.940   6.320   6.647  1.0983 -0.2448  1.6237
14678SOL     OW45474   7.134   1.176   6.623  0.2208 -0.1376 -0.0585
14678SOL    HW145475   7.182   1.144   6.546 -0.0084 -2.1748  0.5884
14678SOL    HW245476   7.196   1.172   6.695 -0.3758 -1.0726  0.4275
14679SOL     OW45477   2.804   6.814   6.875 -0.0398 -0.0412  0.2660
14679SOL    HW145478   2.712   6.838   6.882 -0.8327 -2.3565 -1.0033
14679SOL    HW245479   2.810   6.731   6.923  0.6471 -1.4338 -2.0461
14680SOL     OW45480   0.038   6.984  11.213  0.3932  0.1841  0.3581
14680SOL    HW145481   0.034   7.079  11.223 -3.5662  0.0219  2.5864
14680SOL    HW245482   0.006   6.969  11.124 -0.0865  0.9192  0.3924
14681SOL     OW45483   0.147   5.065  10.229 -0.2148  0.2491 -0.3946
14681SOL    HW145484   0.240   5.041  10.234 -0.4579 -1.0165 -1.6495
14681SOL    HW245485   0.105   5.011  10.295 -0.5064 -1.6359 -2.0492
14682SOL     OW45486   5.808   1.607   9.005 -0.1978 -0.5441  0.2063
14682SOL    HW145487   5.799   1.702   9.012  0.8113 -0.4767  0.7308
14682SOL    HW245488   5.844   1.593   8.917  1.1515 -0.3138  0.7033
14683SOL     OW45489   6.382   5.153   1.320  0.0482 -0.5000  0.4606
14683SOL    HW145490   6.355   5.232   1.272 -0.6094 -0.2929  1.1445
14683SOL    HW245491   6.346   5.081   1.269 -1.0371 -0.2625  0.8609
14684SOL     OW45492   2.371   7.404  11.181 -0.4637  0.3132 -0.3021
14684SOL    HW145493   2.342   7.330  11.127  1.0949  0.4542 -1.3902
14684SOL    HW245494   2.413   7.464  11.119  1.1437  0.6185  1.0259
14685SOL     OW45495   4.297   4.080   0.206  0.1098 -0.7616 -0.1868
14685SOL    HW145496   4.227   4.120   0.155 -0.8993 -1.3861  0.6456
14685SOL    HW245497   4.297   4.129   0.289  0.9051 -0.5312 -0.3223
14686SOL     OW45498   1.548   2.277   0.894  0.1923 -0.7717 -0.0417
14686SOL    HW145499   1.571   2.189   0.926  0.0510 -0.9808 -0.5024
14686SOL    HW245500   1.475   2.262   0.834  0.5437 -0.4120 -0.5733
14687SOL     OW45501   0.724   1.277   4.111  0.2638 -0.2508  0.0476
14687SOL    HW145502   0.798   1.242   4.061  0.0564 -0.8681  0.1722
14687SOL    HW245503   0.694   1.204   4.165 -0.3186  0.0526  0.1434
14688SOL     OW45504   2.225   4.559   2.907  0.3091 -0.0825  0.2290
14688SOL    HW145505   2.249   4.640   2.952  1.1909 -0.9417  1.3649
14688SOL    HW245506   2.236   4.580   2.814 -0.5730  1.4291  0.4235
14689SOL     OW45507   7.080   6.652  10.246  0.5962  0.0479 -0.4090
14689SOL    HW145508   7.114   6.595  10.176  1.9921  0.9732 -0.5310
14689SOL    HW245509   7.140   6.727  10.247  0.2330  0.3607  1.3683
14690SOL     OW45510   4.070   6.381   3.831  0.3168 -0.6344 -0.2118
14690SOL    HW145511   4.148   6.403   3.780 -0.3111  0.2276 -0.8355
14690SOL    HW245512   4.021   6.463   3.836 -0.7604 -1.2633 -0.1944
14691SOL     OW45513   0.937   2.333   0.245 -0.3138  0.2238 -0.0526
14691SOL    HW145514   0.876   2.320   0.318 -0.6084 -1.9705 -0.6371
14691SOL    HW245515   1.024   2.317   0.283 -0.1520  2.0920  0.4758
14692SOL     OW45516   6.297   5.743   9.505 -0.0362  0.0501 -0.0641
14692SOL    HW145517   6.228   5.768   9.444 -1.8022  0.2670  1.9107
14692SOL    HW245518   6.359   5.816   9.502 -0.6598  0.5666 -0.7783
14693SOL     OW45519   4.676   0.146   8.122  0.3500 -0.7478 -0.6979
14693SOL    HW145520   4.723   0.147   8.206 -1.4365 -0.6410  0.3362
14693SOL    HW245521   4.629   0.229   8.120  0.0552 -0.9297 -1.6396
14694SOL     OW45522   5.971   5.823   2.093 -0.5257 -0.5962  0.7846
14694SOL    HW145523   5.886   5.865   2.078  0.0945 -0.0577 -1.7400
14694SOL    HW245524   5.983   5.765   2.017  0.9579 -1.3482  1.5494
14695SOL     OW45525   5.307   0.953   9.572 -0.3721 -0.0051 -0.5802
14695SOL    HW145526   5.332   0.877   9.520  0.6380 -0.2295  0.1995
14695SOL    HW245527   5.342   0.935   9.659  0.8823  1.8422 -0.6529
14696SOL     OW45528   6.407   2.819   9.830 -0.0648  0.0323 -0.3350
14696SOL    HW145529   6.489   2.795   9.787  0.3379 -1.4763  1.1712
14696SOL    HW245530   6.378   2.738   9.872 -0.4019  1.3978  2.2485
14697SOL     OW45531   4.921   3.486  11.129  0.2289  0.5592  0.4018
14697SOL    HW145532   4.865   3.515  11.057 -0.7114 -0.4568  0.6981
14697SOL    HW245533   4.988   3.553  11.135  0.6330  0.4344 -1.7481
14698SOL     OW45534   7.144   6.023   0.409 -0.2549 -0.1499 -0.0759
14698SOL    HW145535   7.112   5.988   0.492 -0.4944 -0.7932 -0.4325
14698SOL    HW245536   7.226   6.068   0.431  0.2957 -1.3107  0.3438
14699SOL     OW45537   2.234   7.781   3.701 -0.0859  0.5242 -0.1467
14699SOL    HW145538   2.297   7.717   3.667  0.5890  1.4889 -0.7535
14699SOL    HW245539   2.203   7.828   3.623 -1.9756 -0.2665  0.0713
14700SOL     OW45540   7.631   3.686   3.808 -0.1609 -0.2184  0.4938
14700SOL    HW145541   7.617   3.650   3.720 -0.6914  1.9087 -0.3757
14700SOL    HW245542   7.696   3.755   3.795  0.6153 -0.6348  2.0155
14701SOL     OW45543   1.013   2.510   6.685 -0.2863 -0.2836 -0.0457
14701SOL    HW145544   0.923   2.531   6.711  0.0077 -0.1577  0.9369
14701SOL    HW245545   1.006   2.430   6.634 -1.0523  0.2336 -0.7860
14702SOL     OW45546   6.405   7.772   2.685 -0.5912 -0.6482  0.2213
14702SOL    HW145547   6.453   7.690   2.697  1.7902  0.4859 -0.9092
14702SOL    HW245548   6.346   7.755   2.611 -1.5090 -1.8396  1.1693
14703SOL     OW45549   2.914   4.139   8.865 -0.1554  0.5274  0.0436
14703SOL    HW145550   2.825   4.111   8.889 -0.0085  1.4645  1.8728
14703SOL    HW245551   2.921   4.228   8.899  2.4156 -0.5028  2.6552
14704SOL     OW45552   7.774   0.853   9.964  0.1536 -0.0876 -0.3072
14704SOL    HW145553   7.819   0.931   9.932  1.0287 -0.8764 -1.0694
14704SOL    HW245554   7.736   0.813   9.885 -0.9217 -0.0461  0.1764
14705SOL     OW45555   1.486   5.864  10.394 -0.3099  0.8348  0.0454
14705SOL    HW145556   1.440   5.867  10.477 -1.7276 -0.8091 -0.6217
14705SOL    HW245557   1.431   5.810  10.337  1.0208  1.2124 -1.7084
14706SOL     OW45558   0.065   4.226  11.404  0.0501  0.2915  0.6068
14706SOL    HW145559   0.152   4.255  11.430  0.2259  0.2526  0.0904
14706SOL    HW245560   0.080   4.141  11.362 -0.2443  0.2455  0.5941
14707SOL     OW45561   2.845   7.362   1.799  0.0111 -0.3465  0.4522
14707SOL    HW145562   2.854   7.289   1.860 -0.1000  0.2204  1.1496
14707SOL    HW245563   2.763   7.345   1.753  1.1444 -1.9544 -1.1566
14708SOL     OW45564   2.716   0.992   2.929 -0.0467 -0.0822  0.2150
14708SOL    HW145565   2.635   1.038   2.910 -0.6513 -1.3114 -0.2658
14708SOL    HW245566   2.731   1.007   3.023 -0.9711 -0.0539  0.3613
14709SOL     OW45567   2.331   1.913   7.149  0.2884 -0.3720 -0.0679
14709SOL    HW145568   2.333   2.003   7.117  1.6073 -0.5789 -0.6425
14709SOL    HW245569   2.246   1.904   7.191 -1.3299  0.0964 -2.9983
14710SOL     OW45570   2.868   1.746   7.860 -0.3721  0.0585  0.2425
14710SOL    HW145571   2.929   1.673   7.853  0.3108  0.7637 -2.7086
14710SOL    HW245572   2.813   1.739   7.782 -2.6467  0.7221  1.6878
14711SOL     OW45573   1.789   0.716   8.533  0.4222  0.7189 -0.1184
14711SOL    HW145574   1.709   0.758   8.567  0.5891  1.5759 -0.7474
14711SOL    HW245575   1.858   0.747   8.591  0.5322  1.2807 -0.5327
14712SOL     OW45576   4.937   0.523   0.656 -0.0777  0.2636  0.3487
14712SOL    HW145577   4.861   0.555   0.609 -0.1562  0.8898  0.8928
14712SOL    HW245578   4.976   0.458   0.598 -0.9928 -0.0188  0.0434
14713SOL     OW45579   3.245   7.091   5.187  0.5515 -0.5232  0.1040
14713SOL    HW145580   3.253   7.120   5.278 -0.6066 -2.0746  0.7443
14713SOL    HW245581   3.335   7.092   5.154  1.0668 -0.4232  1.4340
14714SOL     OW45582   6.061   4.647   3.200 -0.2366 -0.7240 -0.9945
14714SOL    HW145583   6.129   4.711   3.224 -1.0834 -0.6059  1.2472
14714SOL    HW245584   6.100   4.598   3.127  1.4188  0.6950 -1.1368
14715SOL     OW45585   1.426   5.871   8.930  0.3647 -0.6545  0.6118
14715SOL    HW145586   1.425   5.961   8.963 -1.1658 -0.0423 -0.9037
14715SOL    HW245587   1.335   5.841   8.941  0.8490 -2.0306  1.0813
14716SOL     OW45588   5.683   5.727  11.017 -0.1860  0.2333  0.3459
14716SOL    HW145589   5.593   5.754  10.999 -0.6393 -1.0688  0.5246
14716SOL    HW245590   5.688   5.722  11.112 -0.1135 -0.2757  0.3173
14717SOL     OW45591   1.234   3.054   1.095 -0.4968  0.3398  0.6496
14717SOL    HW145592   1.223   3.059   1.190  0.0992 -0.6809  0.7931
14717SOL    HW245593   1.146   3.062   1.060 -0.9066 -0.7161  1.3824
14718SOL     OW45594   1.235   4.932   6.122  0.1267 -0.2815  0.3256
14718SOL    HW145595   1.193   5.012   6.153  0.6720 -0.0506  0.4854
14718SOL    HW245596   1.329   4.952   6.124  0.2072 -0.5170 -0.7943
14719SOL     OW45597   7.913   5.218   2.436 -0.5090 -0.0648  0.1028
14719SOL    HW145598   7.978   5.268   2.486 -2.1066  0.3980  1.8164
14719SOL    HW245599   7.962   5.143   2.403  0.6047 -0.5935  2.6835
14720SOL     OW45600   0.791   1.472   1.942 -0.4452  0.0031 -0.1683
14720SOL    HW145601   0.802   1.390   1.991 -1.2161 -1.5223 -2.3942
14720SOL    HW245602   0.788   1.445   1.850  1.1475  2.7477 -1.1442
14721SOL     OW45603   7.540   7.661   0.544 -0.4062  0.0024  0.1531
14721SOL    HW145604   7.468   7.711   0.504 -0.8580 -0.6928  0.0731
14721SOL    HW245605   7.500   7.620   0.620  0.2524  0.6643  0.8665
14722SOL     OW45606   5.911   4.421   7.197  0.0865  0.7133  0.6619
14722SOL    HW145607   5.931   4.372   7.277  0.8124 -2.3964 -1.2664
14722SOL    HW245608   5.996   4.457   7.169  0.6031 -1.2860 -0.5330
14723SOL     OW45609   3.892   6.779   5.182 -0.1698 -0.0079 -0.3666
14723SOL    HW145610   3.949   6.761   5.107 -0.2612  0.5766 -0.5771
14723SOL    HW245611   3.951   6.813   5.249  0.3645 -2.8787  0.7621
14724SOL     OW45612   1.876   0.452   8.237  0.1155  0.7354 -0.6571
14724SOL    HW145613   1.915   0.536   8.212 -1.3140  2.6168  2.8248
14724SOL    HW245614   1.786   0.457   8.206  0.7263 -0.8650 -2.9645
14725SOL     OW45615   6.922   5.784  12.147 -0.2474 -0.4625 -0.3535
14725SOL    HW145616   6.994   5.769  12.086 -0.6095  1.9456 -1.4882
14725SOL    HW245617   6.964   5.807  12.229  0.2975  0.3308 -0.8455
14726SOL     OW45618   7.819   7.923   8.117 -0.1316 -0.0777  0.6575
14726SOL    HW145619   7.762   7.996   8.092  0.1945 -0.6253 -1.9839
14726SOL    HW245620   7.906   7.963   8.126  0.0126 -0.0552 -0.5951
14727SOL     OW45621   3.176   2.879   0.260  0.2601 -0.5310 -0.7122
14727SOL    HW145622   3.137   2.966   0.256 -0.8205 -1.0008 -0.6762
14727SOL    HW245623   3.263   2.893   0.298 -0.7629  0.2603  1.4690
14728SOL     OW45624   3.578   1.489   9.590 -0.0297  0.2263 -0.5079
14728SOL    HW145625   3.659   1.464   9.547 -0.6911 -1.7097 -0.7233
14728SOL    HW245626   3.555   1.413   9.644 -2.0573  0.4169 -1.0204
14729SOL     OW45627   6.108   5.774   9.279 -0.1428  0.1053 -0.0212
14729SOL    HW145628   6.054   5.849   9.252 -0.0251  1.1859  2.4447
14729SOL    HW245629   6.189   5.784   9.229 -0.0292  1.8044  0.4241
14730SOL     OW45630   3.372   2.293   1.225 -0.3799  0.0667 -0.2735
14730SOL    HW145631   3.317   2.267   1.299 -1.6465  0.5469 -1.0261
14730SOL    HW245632   3.405   2.211   1.189  1.0834 -0.1553  1.3890
14731SOL     OW45633   3.127   3.082   5.443 -0.4155  0.3975 -0.3520
14731SOL    HW145634   3.175   3.164   5.437 -0.6516  0.5915  0.2974
14731SOL    HW245635   3.166   3.037   5.518 -1.1450  0.4894  0.0876
14732SOL     OW45636   1.984   4.944  10.843  0.0753  0.2300  0.2035
14732SOL    HW145637   1.991   5.026  10.793 -0.6696 -0.6905 -1.4874
14732SOL    HW245638   1.890   4.926  10.846  0.1347  0.0750  1.6720
14733SOL     OW45639   2.753   1.845   2.462  0.4330  0.2239  0.4090
14733SOL    HW145640   2.782   1.767   2.414  1.3775  0.7348  0.1250
14733SOL    HW245641   2.809   1.848   2.539 -0.0692  0.2488  0.7817
14734SOL     OW45642   3.172   1.436   6.481  0.1430  0.0164 -0.1139
14734SOL    HW145643   3.115   1.384   6.425 -0.6501  0.7862 -0.0506
14734SOL    HW245644   3.123   1.517   6.497  2.3684  2.0590 -2.4816
14735SOL     OW45645   6.201   5.067   8.618  0.0705 -0.3444  0.8871
14735SOL    HW145646   6.201   4.997   8.684  0.3339 -0.5410  0.6824
14735SOL    HW245647   6.114   5.061   8.577 -0.7744  0.9321  2.4143
14736SOL     OW45648   0.460   5.187  10.106  0.0892 -0.3723  0.5179
14736SOL    HW145649   0.418   5.272  10.123  0.5352  0.1912 -0.9835
14736SOL    HW245650   0.400   5.123  10.144 -2.3785  0.3830 -1.7752
14737SOL     OW45651   3.656   1.244   0.873 -0.1994 -0.1206  0.2725
14737SOL    HW145652   3.746   1.263   0.845 -0.5845  0.9019 -0.3044
14737SOL    HW245653   3.605   1.245   0.793 -0.9319  0.5003  0.7328
14738SOL     OW45654   4.625   6.829   8.614  0.2346 -0.0420  0.1122
14738SOL    HW145655   4.652   6.855   8.526 -0.9571  1.2214  0.0935
14738SOL    HW245656   4.606   6.735   8.606  0.6224 -0.0497 -0.8515
14739SOL     OW45657   0.612   7.266   6.210 -0.4385 -0.3875  0.4214
14739SOL    HW145658   0.672   7.325   6.164 -0.5737 -0.3637  0.2773
14739SOL    HW245659   0.551   7.325   6.254 -1.3946 -0.4352 -0.8017
14740SOL     OW45660   1.416   0.276   7.200 -0.7740  0.1802  0.0958
14740SOL    HW145661   1.346   0.222   7.163  0.1076 -1.0526  0.1477
14740SOL    HW245662   1.419   0.251   7.292 -1.2270  1.3196  0.4346
14741SOL     OW45663   4.771   4.575   9.146 -0.0569 -0.1777 -0.2227
14741SOL    HW145664   4.695   4.633   9.153  1.4138  1.7376  0.8048
14741SOL    HW245665   4.794   4.578   9.053  1.4826  3.0589  0.1107
14742SOL     OW45666   3.653   7.616   3.985 -0.0183 -0.0600  0.4440
14742SOL    HW145667   3.665   7.638   3.892 -1.0897  1.6775  0.6741
14742SOL    HW245668   3.569   7.570   3.987 -0.4233  0.6919  0.6668
14743SOL     OW45669   4.785   6.760   5.710 -0.4128  0.9333 -0.3794
14743SOL    HW145670   4.694   6.729   5.710 -0.3043  0.4858  1.3197
14743SOL    HW245671   4.779   6.854   5.699 -1.0975  0.9136 -0.2152
14744SOL     OW45672   5.261   6.937   9.198  0.4244  0.0310  0.4648
14744SOL    HW145673   5.171   6.923   9.227  0.2918 -1.1938 -0.4441
14744SOL    HW245674   5.281   6.860   9.144  1.5592  0.9190 -0.4468
14745SOL     OW45675   5.251   2.276   3.921 -0.5664  0.2114  0.3381
14745SOL    HW145676   5.273   2.202   3.977  0.3847  0.3414  0.1487
14745SOL    HW245677   5.263   2.353   3.976 -1.4167  0.2441  0.4922
14746SOL     OW45678   7.869   3.833   3.758  0.3545 -0.4695  0.3831
14746SOL    HW145679   7.914   3.830   3.842 -0.1523 -0.7023  0.6559
14746SOL    HW245680   7.938   3.828   3.693  0.6685 -2.0972  0.7861
14747SOL     OW45681   1.760   3.559  11.992  0.7570 -0.0979  1.0220
14747SOL    HW145682   1.816   3.626  11.952  2.0936 -1.7758 -0.0399
14747SOL    HW245683   1.791   3.553  12.083  2.1137 -0.7816  0.5315
14748SOL     OW45684   0.156   6.271   9.884  0.3571 -0.3724 -0.2951
14748SOL    HW145685   0.184   6.201   9.943 -0.7516 -0.2669  0.3865
14748SOL    HW245686   0.126   6.226   9.805 -1.5381 -0.8020  0.6094
14749SOL     OW45687   3.390   3.834   6.697 -0.4124  0.2655  0.5074
14749SOL    HW145688   3.304   3.851   6.659  0.3602 -1.3687 -2.2707
14749SOL    HW245689   3.438   3.916   6.690 -1.4323  0.9357  1.2472
14750SOL     OW45690   3.306   7.390   1.302 -0.4274  0.1721 -0.3983
14750SOL    HW145691   3.309   7.333   1.226  1.6468 -0.6788  0.2713
14750SOL    HW245692   3.382   7.448   1.292  2.7013 -2.8295  3.0536
14751SOL     OW45693   4.581   5.248   4.743  0.4264 -0.2198 -0.1818
14751SOL    HW145694   4.525   5.228   4.817  0.8153  0.7052  0.3761
14751SOL    HW245695   4.538   5.322   4.699  0.6696 -0.1758 -0.3513
14752SOL     OW45696   3.403   6.068   6.596 -0.1277  0.0667 -0.2950
14752SOL    HW145697   3.415   6.005   6.525  0.2847 -1.1212  0.7642
14752SOL    HW245698   3.322   6.041   6.639  0.3047 -0.0521  0.4625
14753SOL     OW45699   3.114   2.362   2.176  0.0824 -0.0318  0.1786
14753SOL    HW145700   3.201   2.395   2.195 -0.2740  0.6845  0.5867
14753SOL    HW245701   3.103   2.375   2.081 -0.3108  1.6851  0.4276
14754SOL     OW45702   2.299   4.130   6.915  0.6476  0.1774 -0.1219
14754SOL    HW145703   2.383   4.094   6.945  0.0189 -0.8221  0.5018
14754SOL    HW245704   2.247   4.053   6.893  0.1809  0.8137 -1.3519
14755SOL     OW45705   1.117   3.434   4.995 -0.0262 -0.4858 -0.1726
14755SOL    HW145706   1.121   3.499   4.925 -4.4673  1.3682  0.9752
14755SOL    HW245707   1.072   3.359   4.956 -0.9920 -0.1147  0.1954
14756SOL     OW45708   6.588   7.102   2.862  0.3788  0.1618 -0.4844
14756SOL    HW145709   6.566   7.190   2.892 -0.6918 -0.4378  0.5637
14756SOL    HW245710   6.664   7.077   2.916 -1.3775 -0.8079  1.6790
14757SOL     OW45711   3.362   1.002   2.818 -0.3600  0.1171 -0.0968
14757SOL    HW145712   3.450   0.963   2.820  0.4292  1.8112  0.9368
14757SOL    HW245713   3.337   1.008   2.910 -0.9401  0.9790 -0.3051
14758SOL     OW45714   4.184   7.016   8.589  0.4434  0.1330 -0.6193
14758SOL    HW145715   4.123   7.069   8.640 -0.6831  1.3448 -3.1013
14758SOL    HW245716   4.269   7.032   8.631 -0.5615  0.0212  1.6312
14759SOL     OW45717   3.605   0.927   5.078  0.4376 -0.1656  0.1283
14759SOL    HW145718   3.594   0.928   4.983  1.0040 -2.0637  0.0060
14759SOL    HW245719   3.700   0.923   5.092  0.3692  0.2772  0.7847
14760SOL     OW45720   6.273   4.420   4.519 -0.2622 -0.3301  0.0438
14760SOL    HW145721   6.369   4.429   4.519 -0.0778 -1.8701 -1.1660
14760SOL    HW245722   6.242   4.494   4.467  0.1986  0.5788  1.0245
14761SOL     OW45723   1.450   1.354   3.858  0.3269 -0.1075  0.4587
14761SOL    HW145724   1.382   1.287   3.859  2.2970 -2.2588  0.8548
14761SOL    HW245725   1.434   1.405   3.938 -1.1868 -0.1212  0.1859
14762SOL     OW45726   4.612   2.386   2.067 -0.0163 -0.0499 -0.5331
14762SOL    HW145727   4.658   2.306   2.092 -0.0166  0.5085  1.4542
14762SOL    HW245728   4.622   2.444   2.143 -1.7621  1.0652 -1.0948
14763SOL     OW45729   6.816   3.696   8.103 -0.0025 -0.0647  0.1301
14763SOL    HW145730   6.900   3.674   8.063  0.9474  1.3032  1.2371
14763SOL    HW245731   6.829   3.678   8.196 -1.0063  0.0065  0.2932
14764SOL     OW45732   1.791   7.140  12.155 -0.5151  0.9985 -0.7134
14764SOL    HW145733   1.850   7.208  12.122 -0.2856  1.6377  0.9185
14764SOL    HW245734   1.704   7.169  12.126 -0.3820  1.8320 -0.3289
14765SOL     OW45735   0.222   5.856   7.159 -0.0652  0.1681  0.3761
14765SOL    HW145736   0.254   5.766   7.165 -0.1361  0.1999  1.2915
14765SOL    HW245737   0.298   5.908   7.132  0.1141 -0.0785  0.4105
14766SOL     OW45738   0.641   7.010  11.716 -0.4994 -0.3610 -0.4384
14766SOL    HW145739   0.602   6.941  11.771 -0.3560 -0.9323 -1.0364
14766SOL    HW245740   0.569   7.039  11.660 -0.7008  0.3711  0.1820
14767SOL     OW45741   1.056   5.462  10.835 -0.4103 -0.2523 -0.6370
14767SOL    HW145742   1.079   5.540  10.785  0.0591  0.0084 -0.0296
14767SOL    HW245743   1.133   5.405  10.827  0.3595  0.4716  1.1126
14768SOL     OW45744   3.915   1.724   1.706  0.2698 -0.5929 -0.1752
14768SOL    HW145745   3.912   1.750   1.798  2.1355  1.4796 -0.6279
14768SOL    HW245746   3.902   1.806   1.657 -3.0328 -1.9474 -1.8638
14769SOL     OW45747   1.843   5.563   1.319  0.0867  0.1304  0.4797
14769SOL    HW145748   1.790   5.624   1.268  1.4315  1.0824  0.1457
14769SOL    HW245749   1.857   5.608   1.403 -0.9592 -0.8192  1.1803
14770SOL     OW45750   0.321   4.661   1.423 -0.3110  0.5779  0.6291
14770SOL    HW145751   0.242   4.705   1.454 -0.2993  1.8431 -1.0013
14770SOL    HW245752   0.392   4.723   1.440 -0.2321  1.0917 -1.3128
14771SOL     OW45753   5.425   1.416   9.897 -0.5231  0.3410  0.0324
14771SOL    HW145754   5.394   1.345   9.840 -2.4565  1.9890 -1.1215
14771SOL    HW245755   5.496   1.457   9.848 -0.2028 -0.0583  0.1605
14772SOL     OW45756   7.868   6.396   2.187 -0.1288 -0.8423  0.2561
14772SOL    HW145757   7.935   6.461   2.207 -0.3171 -0.4070 -0.4968
14772SOL    HW245758   7.917   6.321   2.153 -0.0120 -0.6082 -0.0896
14773SOL     OW45759   4.750   3.546   0.832  0.1414  0.6420 -0.0560
14773SOL    HW145760   4.706   3.615   0.882 -0.7899  1.8828 -2.4251
14773SOL    HW245761   4.839   3.542   0.869 -0.2833  1.9592  1.1928
14774SOL     OW45762   2.586   4.987   1.492 -0.0843  0.8092 -0.1819
14774SOL    HW145763   2.547   5.017   1.410 -0.8366  0.1833 -0.0640
14774SOL    HW245764   2.517   4.999   1.557  0.4532  1.1447  0.3319
14775SOL     OW45765   1.281   4.107   4.796  0.0369  0.6863  0.0719
14775SOL    HW145766   1.284   4.034   4.735  2.5989 -0.0001  0.9206
14775SOL    HW245767   1.341   4.172   4.759  0.8960  0.6451  1.3246
14776SOL     OW45768   2.780   3.031   2.579 -0.8670  0.4205 -0.7107
14776SOL    HW145769   2.812   3.121   2.582 -1.7090  0.7029  0.2338
14776SOL    HW245770   2.685   3.038   2.592 -1.0139 -0.5680 -1.1138
14777SOL     OW45771   1.550   0.521   5.813  0.0715  0.2360  1.0547
14777SOL    HW145772   1.632   0.492   5.853  0.6891 -2.6850 -1.9330
14777SOL    HW245773   1.577   0.569   5.735 -1.1515  2.3776  1.8437
14778SOL     OW45774   0.802   1.607  10.008 -0.0265 -0.0364  0.0596
14778SOL    HW145775   0.865   1.665  10.051 -0.5948 -0.1402  1.0415
14778SOL    HW245776   0.802   1.528  10.061 -1.7186  0.3356  0.6732
14779SOL     OW45777   0.222   4.074   2.009 -0.4675  0.5545 -0.1866
14779SOL    HW145778   0.189   4.012   1.944 -2.7213  2.1306 -0.6957
14779SOL    HW245779   0.249   4.150   1.958  4.5389 -0.6104  0.1675
14780SOL     OW45780   7.524   3.680  11.373  0.2702  0.0480 -0.4751
14780SOL    HW145781   7.547   3.757  11.425 -0.5409 -0.5972  0.8969
14780SOL    HW245782   7.440   3.702  11.332  0.0352 -0.1038 -0.0771
14781SOL     OW45783   3.413   0.697   8.244 -0.0132  0.4120 -0.2265
14781SOL    HW145784   3.464   0.663   8.318 -1.6842 -0.5764  0.5439
14781SOL    HW245785   3.326   0.657   8.255 -1.5231  3.3595 -0.4735
14782SOL     OW45786   2.771   5.211  11.318 -0.2157  0.4266 -0.3391
14782SOL    HW145787   2.762   5.243  11.408 -0.5006 -0.3159 -0.0945
14782SOL    HW245788   2.686   5.230  11.278 -0.3880 -0.0308 -0.1909
14783SOL     OW45789   0.282   1.049   5.005  0.5827  0.2824 -0.0618
14783SOL    HW145790   0.305   1.019   5.092 -0.6893  0.3851  0.3338
14783SOL    HW245791   0.319   1.137   4.999 -0.4484  0.8152  0.9034
14784SOL     OW45792   3.717   6.072   8.493 -0.1567 -0.2678 -0.7770
14784SOL    HW145793   3.739   6.081   8.586 -0.7078 -0.0989 -0.6629
14784SOL    HW245794   3.801   6.052   8.451  0.1567  0.0170 -0.2973
14785SOL     OW45795   0.075   0.771   0.119 -0.0456 -0.5280  0.0418
14785SOL    HW145796   0.139   0.836   0.092 -0.8246  0.0384 -0.4888
14785SOL    HW245797  -0.009   0.817   0.116 -0.7766 -1.8714 -1.5347
14786SOL     OW45798   0.203   3.849   7.528 -0.2983 -0.9493  0.0159
14786SOL    HW145799   0.266   3.916   7.501 -2.6927  1.7989  0.7241
14786SOL    HW245800   0.241   3.812   7.608 -0.5842  2.5043  1.9476
14787SOL     OW45801   4.502   3.091  10.481 -0.2553  0.1702  0.2212
14787SOL    HW145802   4.486   2.998  10.461 -0.3656  0.3104 -0.3770
14787SOL    HW245803   4.563   3.119  10.413 -1.0264  0.7970 -0.2282
14788SOL     OW45804   7.164   0.874   6.776 -0.0687  0.7488 -0.1054
14788SOL    HW145805   7.074   0.882   6.809 -0.2141 -0.8414 -0.0214
14788SOL    HW245806   7.213   0.942   6.822 -1.1049  1.2573  0.2822
14789SOL     OW45807   2.602   6.023   3.065  0.0516 -0.0691 -0.0322
14789SOL    HW145808   2.568   5.964   3.131  1.3633 -1.4478 -0.5463
14789SOL    HW245809   2.697   6.014   3.071  0.3792  2.7129  0.5057
14790SOL     OW45810   0.604   2.037  12.404 -0.4243 -0.2846 -0.1109
14790SOL    HW145811   0.669   2.095  12.442 -0.0866 -0.3789 -0.5312
14790SOL    HW245812   0.548   2.012  12.477 -0.2193  0.1015  0.1822
14791SOL     OW45813   4.949   7.855   7.965 -0.3058 -0.3922  0.9364
14791SOL    HW145814   5.030   7.889   7.928  0.6694 -0.0731  3.2286
14791SOL    HW245815   4.880   7.899   7.915  0.9322  1.9067  1.1422
14792SOL     OW45816   5.249   3.692   3.823  0.2802 -0.0693 -0.0430
14792SOL    HW145817   5.246   3.680   3.918 -0.1727 -0.8088 -0.1432
14792SOL    HW245818   5.210   3.613   3.788  0.3269  0.2584 -0.8503
14793SOL     OW45819   7.126   1.613   5.188 -0.4411 -0.1596  0.1144
14793SOL    HW145820   7.090   1.632   5.275 -0.2400 -1.1189  0.4136
14793SOL    HW245821   7.084   1.532   5.161  1.6812 -1.5189  0.6249
14794SOL     OW45822   7.951   6.694   9.326  0.4342  0.1025  0.6410
14794SOL    HW145823   7.967   6.600   9.335  1.5789  0.2384  0.0984
14794SOL    HW245824   7.885   6.713   9.393 -0.9498 -1.3522 -0.2323
14795SOL     OW45825   7.879   0.677   8.954 -0.0297  0.4421  0.4810
14795SOL    HW145826   7.786   0.659   8.939  0.6145 -2.0251 -1.1695
14795SOL    HW245827   7.924   0.623   8.889  2.5554  2.1405  0.7527
14796SOL     OW45828   2.844   2.865   9.112  0.3184 -0.5387 -0.2708
14796SOL    HW145829   2.791   2.945   9.121  1.9008  0.4956  0.3192
14796SOL    HW245830   2.880   2.870   9.024  1.0667 -0.1687  0.0494
14797SOL     OW45831   7.185   4.008  11.718  0.4530 -0.0177 -0.5121
14797SOL    HW145832   7.250   3.956  11.672 -0.4487 -0.8984 -0.8261
14797SOL    HW245833   7.130   3.943  11.764  0.0959  0.7253  0.1430
14798SOL     OW45834   6.714   0.717   5.850  0.1887  0.5156 -0.1715
14798SOL    HW145835   6.642   0.717   5.786 -0.4643  1.1618  0.5344
14798SOL    HW245836   6.780   0.659   5.813 -0.8387 -0.3526 -0.6932
14799SOL     OW45837   0.253   0.584   2.376  0.3925  0.3460 -0.0884
14799SOL    HW145838   0.189   0.514   2.390  1.2459 -0.4772 -0.2636
14799SOL    HW245839   0.201   0.664   2.384 -0.6667 -0.3001 -0.2241
14800SOL     OW45840   5.015   2.692  10.639  0.7144 -0.1741  0.3908
14800SOL    HW145841   4.955   2.667  10.710 -1.4490 -1.1551 -1.6290
14800SOL    HW245842   4.982   2.777  10.610  0.2366 -0.7092 -0.7204
14801SOL     OW45843   5.282   7.319   3.787 -0.2016  0.0218 -0.6642
14801SOL    HW145844   5.324   7.375   3.721  1.4852  0.3229  0.5782
14801SOL    HW245845   5.322   7.233   3.775 -1.2277 -0.3881 -1.1968
14802SOL     OW45846   7.759   1.903   8.066  0.1758 -0.5423  0.6563
14802SOL    HW145847   7.734   1.856   8.146 -1.5105  0.4155  0.7327
14802SOL    HW245848   7.822   1.969   8.096 -0.1819 -0.4120  1.1399
14803SOL     OW45849   2.363   0.497   6.193 -0.0783 -0.5178 -0.3750
14803SOL    HW145850   2.338   0.470   6.105 -1.4165 -0.7458  0.0458
14803SOL    HW245851   2.381   0.590   6.186 -0.7218 -0.4205 -0.7896
14804SOL     OW45852   5.871   6.488   7.100  1.0494  0.0589 -0.0503
14804SOL    HW145853   5.958   6.482   7.061 -0.0768 -0.4654 -2.6406
14804SOL    HW245854   5.811   6.461   7.031 -1.1742 -0.1382  1.8262
14805SOL     OW45855   4.755   7.867   0.879 -0.2522 -0.4327 -0.3285
14805SOL    HW145856   4.765   7.892   0.971 -2.2465  1.3253 -0.5142
14805SOL    HW245857   4.843   7.869   0.844  0.1458  3.7951  0.4226
14806SOL     OW45858   6.182   2.142   7.854  0.3679  0.6067  0.2544
14806SOL    HW145859   6.163   2.052   7.826  1.2570  0.4257  0.2093
14806SOL    HW245860   6.246   2.133   7.924 -0.9430  1.1259  1.5894
14807SOL     OW45861   2.491   7.609   0.437  0.3941 -0.6701  0.3508
14807SOL    HW145862   2.541   7.617   0.356 -0.5694  1.3619 -0.0865
14807SOL    HW245863   2.518   7.683   0.490  0.6741 -1.7198  1.7422
14808SOL     OW45864   7.952   1.141   5.020  0.0449 -0.2775  0.1445
14808SOL    HW145865   8.012   1.159   5.092  1.1815  0.0722 -0.8548
14808SOL    HW245866   7.969   1.211   4.956 -1.6181 -0.0266 -0.0528
14809SOL     OW45867   1.707   6.559  10.468  0.4129 -0.0476 -0.1963
14809SOL    HW145868   1.616   6.540  10.492  0.3093 -0.1845 -0.6866
14809SOL    HW245869   1.755   6.481  10.497  0.9268  1.3142  3.0307
14810SOL     OW45870   3.522   0.370   6.867  0.0859  0.4889 -0.1267
14810SOL    HW145871   3.514   0.382   6.772  0.2194  1.9551  0.0269
14810SOL    HW245872   3.616   0.360   6.882 -0.1217 -2.8457 -0.4400
14811SOL     OW45873   1.496   5.179   4.275  0.3079  0.3912 -0.1300
14811SOL    HW145874   1.455   5.106   4.322  0.5101  0.9254  0.8885
14811SOL    HW245875   1.426   5.213   4.219 -0.3641  0.6660  0.8591
14812SOL     OW45876   0.188   0.915   7.056  0.1330  0.4978  0.4808
14812SOL    HW145877   0.147   0.909   6.970  0.2871  0.7932  0.3860
14812SOL    HW245878   0.274   0.874   7.045  0.5463  1.4099  0.2408
14813SOL     OW45879   2.277   6.882   1.586  0.1029 -0.0660  0.9416
14813SOL    HW145880   2.315   6.843   1.508 -2.3942  0.5840 -0.7184
14813SOL    HW245881   2.275   6.976   1.568 -3.4812 -0.1343  0.1907
14814SOL     OW45882   3.361   2.864   7.011 -0.6740  0.4826 -0.1376
14814SOL    HW145883   3.305   2.941   7.006 -0.2239  0.9164  1.0278
14814SOL    HW245884   3.418   2.881   7.086 -0.6404 -1.0309  0.2172
14815SOL     OW45885   0.675   1.924   3.860  0.3219  0.4012  0.4831
14815SOL    HW145886   0.666   1.880   3.776 -0.8244  0.1034  0.7461
14815SOL    HW245887   0.764   1.905   3.889 -0.2764 -2.1701  0.8238
14816SOL     OW45888   2.043   2.660   8.222  0.5942  0.3948 -0.1421
14816SOL    HW145889   2.106   2.657   8.294  0.1368  0.7966  0.2873
14816SOL    HW245890   1.985   2.732   8.245 -0.1347 -0.0923 -0.4322
14817SOL     OW45891   5.005   7.399   7.014 -0.2336  0.0021  0.2166
14817SOL    HW145892   5.087   7.440   6.985 -0.7801 -0.2315 -1.8862
14817SOL    HW245893   4.980   7.447   7.093  1.1561  1.0745  0.0395
14818SOL     OW45894   7.222   4.801   9.416 -0.2985  0.1186  0.3196
14818SOL    HW145895   7.274   4.740   9.364 -0.6485  0.2460 -0.1907
14818SOL    HW245896   7.256   4.793   9.505 -1.0716 -1.6217  0.4889
14819SOL     OW45897   2.252   2.590   8.383 -0.2848  0.0113  0.0764
14819SOL    HW145898   2.318   2.611   8.450  0.5134  0.8196 -0.9277
14819SOL    HW245899   2.224   2.501   8.405 -0.4522  0.4531  1.8064
14820SOL     OW45900   7.349   5.146   2.261 -0.4650 -0.0199 -0.2484
14820SOL    HW145901   7.261   5.167   2.232  0.7171 -0.0333 -4.4502
14820SOL    HW245902   7.389   5.231   2.280 -0.4611  0.3001 -1.5873
14821SOL     OW45903   7.265   1.944   3.623 -0.6364  0.3076 -0.4387
14821SOL    HW145904   7.227   1.862   3.592  0.4510  0.1639 -1.4692
14821SOL    HW245905   7.223   2.011   3.568  0.1348  0.2008 -1.1885
14822SOL     OW45906   6.473   7.765   3.141  0.3297 -0.4403  0.3116
14822SOL    HW145907   6.456   7.678   3.178  3.9071 -1.6780 -0.5227
14822SOL    HW245908   6.401   7.779   3.080  0.7343 -3.9601 -1.2439
14823SOL     OW45909   2.806   5.804   3.322 -0.3268  0.3118  0.1213
14823SOL    HW145910   2.859   5.850   3.387 -2.3500  0.1086  2.0250
14823SOL    HW245911   2.823   5.850   3.240  1.0004  1.6897  1.1120
14824SOL     OW45912   0.521   1.533   8.584 -0.0137 -0.0227 -0.3397
14824SOL    HW145913   0.562   1.511   8.668  0.3264  0.8718 -0.2669
14824SOL    HW245914   0.439   1.577   8.608  1.1310  2.2727 -0.4165
14825SOL     OW45915   7.109   3.644   7.151  0.5919  0.5554  0.2098
14825SOL    HW145916   7.103   3.721   7.095 -0.9565  1.0474  0.9882
14825SOL    HW245917   7.017   3.619   7.166  1.0411 -2.5165 -1.4454
14826SOL     OW45918   5.197   2.338  11.518 -0.0191  0.3182  0.1187
14826SOL    HW145919   5.215   2.329  11.611  1.1195 -1.4991 -0.2128
14826SOL    HW245920   5.205   2.249  11.483 -0.9289  0.8681 -1.6365
14827SOL     OW45921   1.188   2.053   9.849 -0.3389  0.1015  0.1148
14827SOL    HW145922   1.263   2.057   9.908 -0.3908  0.0632  0.1845
14827SOL    HW245923   1.119   2.013   9.902  0.2953 -2.2164 -0.7044
14828SOL     OW45924   1.749   3.971   0.072 -0.2760 -0.0570 -0.4522
14828SOL    HW145925   1.679   3.948   0.134  0.7246  0.4599  0.9174
14828SOL    HW245926   1.821   3.913   0.096  0.6988  1.3038 -0.0151
14829SOL     OW45927   0.846   2.406   2.058  0.2042  0.2208 -0.2377
14829SOL    HW145928   0.895   2.324   2.061 -0.0063  0.1347  1.2344
14829SOL    HW245929   0.910   2.471   2.030  0.4427 -0.3810 -1.1225
14830SOL     OW45930   1.185   2.828   8.625 -0.2892  0.0351  0.1006
14830SOL    HW145931   1.257   2.790   8.574 -0.5254 -0.0517 -0.1787
14830SOL    HW245932   1.108   2.812   8.570 -0.8094 -1.5322  1.2088
14831SOL     OW45933   3.585   5.136   7.841  0.4027 -0.6370 -0.2272
14831SOL    HW145934   3.636   5.217   7.846  1.1385 -0.9240 -2.1136
14831SOL    HW245935   3.644   5.074   7.798 -0.4624 -1.9288  0.4053
14832SOL     OW45936   2.621   5.044   9.369  0.2152 -0.0705 -0.1447
14832SOL    HW145937   2.540   5.057   9.319 -0.4447 -0.8953  0.6685
14832SOL    HW245938   2.691   5.062   9.307 -0.5909  1.6327 -0.6084
14833SOL     OW45939   1.975   6.660   7.841  0.2873 -0.0381  0.5776
14833SOL    HW145940   2.040   6.720   7.804 -0.4970 -0.4944 -1.7406
14833SOL    HW245941   1.914   6.717   7.888 -1.3494  1.4008 -2.8958
14834SOL     OW45942   0.434   5.020   9.348  0.6824  0.4795  0.5501
14834SOL    HW145943   0.487   5.093   9.380 -0.3023  1.1486  0.7142
14834SOL    HW245944   0.399   5.051   9.264  0.3144  0.1822  0.5891
14835SOL     OW45945   0.625   3.465   7.741  0.0390 -0.0446 -0.7244
14835SOL    HW145946   0.529   3.459   7.738  0.0438 -0.2202 -0.4861
14835SOL    HW245947   0.649   3.431   7.827  0.3727 -0.7484 -1.0937
14836SOL     OW45948   4.499   0.556   7.262 -0.2334 -0.1224  0.2412
14836SOL    HW145949   4.521   0.576   7.171 -2.2474 -1.2231 -0.5678
14836SOL    HW245950   4.500   0.641   7.306 -1.7568  0.8489 -1.4518
14837SOL     OW45951   2.423   5.094   1.267  0.3699 -0.6451  0.3451
14837SOL    HW145952   2.404   5.094   1.173  0.3435 -0.1336  0.3457
14837SOL    HW245953   2.355   5.150   1.304  1.7136  1.0352  0.3800
14838SOL     OW45954   1.383   0.670   0.989  0.4171  0.5873  0.3297
14838SOL    HW145955   1.396   0.630   0.903  0.3418  1.6450 -0.1904
14838SOL    HW245956   1.292   0.650   1.011 -0.2479  2.1173 -0.8360
14839SOL     OW45957   2.858   3.090   9.538 -0.0159 -0.0221  0.5883
14839SOL    HW145958   2.765   3.069   9.545  0.0105  0.0010  0.9958
14839SOL    HW245959   2.903   3.012   9.570  0.1029  0.0521  0.5999
14840SOL     OW45960   1.776   1.021   1.673  0.0904  0.2060 -0.0467
14840SOL    HW145961   1.867   1.041   1.695  0.5222 -0.3186 -1.2168
14840SOL    HW245962   1.775   0.925   1.664  0.5210  0.4080 -4.1609
14841SOL     OW45963   5.926   3.318  11.433  0.0347  0.0639 -0.1780
14841SOL    HW145964   5.893   3.251  11.373  2.1882 -0.3557 -0.9597
14841SOL    HW245965   6.020   3.304  11.436  0.2088  1.2525  1.9109
14842SOL     OW45966   7.809   1.823   3.409  0.2333  0.0330 -0.3841
14842SOL    HW145967   7.777   1.811   3.498 -0.2013  0.7465 -0.4374
14842SOL    HW245968   7.904   1.812   3.416  0.3448  1.3212  0.3971
14843SOL     OW45969   6.392   6.078   0.212 -0.0956 -0.5171 -0.7988
14843SOL    HW145970   6.340   6.136   0.157  0.0148  0.3244 -0.0517
14843SOL    HW245971   6.328   6.021   0.254 -0.3370 -0.0687 -0.5533
14844SOL     OW45972   6.420   7.680   3.734 -0.2527  0.5088 -0.4724
14844SOL    HW145973   6.447   7.708   3.647  1.2701  3.2196  0.7571
14844SOL    HW245974   6.356   7.746   3.763 -2.1397 -1.3318 -0.1416
14845SOL     OW45975   2.533   6.717   4.431  0.3167 -0.1711 -0.4857
14845SOL    HW145976   2.542   6.650   4.364 -1.7421 -0.3075 -0.6957
14845SOL    HW245977   2.533   6.668   4.514 -0.8599 -0.4408 -0.6215
14846SOL     OW45978   2.828   0.206   4.479 -0.4112 -0.2620 -0.0821
14846SOL    HW145979   2.854   0.119   4.508  0.0482  0.3677  1.4570
14846SOL    HW245980   2.874   0.218   4.396  1.5359 -0.5198  0.9026
14847SOL     OW45981   1.742   2.236  10.057  0.6399 -0.3725 -0.4218
14847SOL    HW145982   1.694   2.190  10.126  1.7429 -1.1948 -0.1672
14847SOL    HW245983   1.697   2.211   9.976  0.3252 -0.7118 -0.1451
14848SOL     OW45984   6.636   7.111   1.939  0.1629 -0.0183  0.1596
14848SOL    HW145985   6.671   7.106   1.849 -0.3864 -0.0750 -0.0513
14848SOL    HW245986   6.543   7.095   1.929  0.3733 -2.0814  0.9769
14849SOL     OW45987   3.097   1.583   1.058 -0.3900  0.1982  0.3513
14849SOL    HW145988   3.181   1.622   1.032 -0.2687 -0.3825 -0.1510
14849SOL    HW245989   3.032   1.627   1.005 -0.7579  2.5039  2.5360
14850SOL     OW45990   4.881   2.178   9.726  0.0877 -0.0173  0.0207
14850SOL    HW145991   4.933   2.257   9.739 -0.0502  0.0387  0.2430
14850SOL    HW245992   4.830   2.196   9.647 -1.3155  0.8687  1.0829
14851SOL     OW45993   5.219   4.212   4.173  0.0857  0.0749 -0.7020
14851SOL    HW145994   5.196   4.120   4.186 -2.2978  0.4860 -1.5264
14851SOL    HW245995   5.187   4.256   4.251 -1.2475  0.5279 -1.4618
14852SOL     OW45996   0.114   5.929   8.389 -0.0066 -0.1229 -0.1523
14852SOL    HW145997   0.113   5.842   8.428  0.3426 -0.0527  0.0155
14852SOL    HW245998   0.098   5.988   8.462 -0.0946 -0.0350 -0.2417
14853SOL     OW45999   1.706   1.855   2.246  0.2104  0.1780 -0.5159
14853SOL    HW146000   1.661   1.791   2.300 -0.0091  1.0946  0.4254
14853SOL    HW246001   1.669   1.939   2.273 -1.1824  0.5767 -3.2730
14854SOL     OW46002   1.980   4.513   6.863  0.0064 -0.1081 -0.8942
14854SOL    HW146003   2.057   4.569   6.869  0.1755 -0.4732  0.5823
14854SOL    HW246004   2.001   4.436   6.915 -0.6692 -1.0425 -1.9584
14855SOL     OW46005   5.849   5.831   8.600 -0.1785 -0.5098  0.3908
14855SOL    HW146006   5.848   5.816   8.694 -1.5354  0.7184  0.6098
14855SOL    HW246007   5.807   5.753   8.563 -0.8667 -0.4102  0.9319
14856SOL     OW46008   2.898   3.380   6.774  0.2616  0.5024 -0.2169
14856SOL    HW146009   2.985   3.350   6.747  0.3472  2.3669 -2.3754
14856SOL    HW246010   2.914   3.467   6.811 -0.5264  0.1996  0.8712
14857SOL     OW46011   3.852   2.802   1.208 -0.4249  0.2734 -0.2408
14857SOL    HW146012   3.939   2.790   1.172 -1.1408 -1.5566 -1.5097
14857SOL    HW246013   3.830   2.718   1.248 -1.0323  1.1863  1.4602
14858SOL     OW46014   2.732   4.024  12.147 -0.0656 -0.2081  0.0190
14858SOL    HW146015   2.755   3.933  12.164  1.6923  0.4188  1.4107
14858SOL    HW246016   2.637   4.025  12.141 -0.2119 -1.9233  1.4136
14859SOL     OW46017   5.590   1.055   8.862 -0.6779  0.1471  0.1978
14859SOL    HW146018   5.673   1.035   8.818 -0.5853 -0.2922  0.5667
14859SOL    HW246019   5.598   1.148   8.886 -0.1261  0.0071  0.5802
14860SOL     OW46020   3.206   3.137   1.631  0.1712 -0.3435 -0.1118
14860SOL    HW146021   3.252   3.170   1.554 -1.2812  0.9066 -0.4986
14860SOL    HW246022   3.245   3.052   1.648  1.8253  0.1761 -1.0767
14861SOL     OW46023   1.125   2.453   6.250 -0.0879 -0.4700 -0.0167
14861SOL    HW146024   1.064   2.525   6.238 -0.6404 -0.6775  1.3504
14861SOL    HW246025   1.079   2.376   6.217 -0.4177 -0.5559  0.6229
14862SOL     OW46026   6.725   5.112   5.711  0.0090 -0.5231 -0.9283
14862SOL    HW146027   6.655   5.048   5.718 -0.0140 -0.6044 -1.7751
14862SOL    HW246028   6.733   5.129   5.617 -0.6411  1.4500 -0.6737
14863SOL     OW46029   7.549   7.817   5.124  0.0690 -0.0961 -0.0807
14863SOL    HW146030   7.544   7.749   5.057 -0.3868  0.0586 -0.2058
14863SOL    HW246031   7.603   7.779   5.193 -0.3235 -0.6470 -0.0735
14864SOL     OW46032   5.111   5.408   1.477  0.1687  0.2738  0.5937
14864SOL    HW146033   5.016   5.415   1.478  0.2084  1.7333 -0.7362
14864SOL    HW246034   5.141   5.495   1.447  1.8175 -0.7253 -0.8794
14865SOL     OW46035   2.084   1.606   0.621  0.0589  0.2920  0.2000
14865SOL    HW146036   2.132   1.550   0.560  1.8937  0.8747  1.0504
14865SOL    HW246037   2.002   1.559   0.637  0.9625 -1.4774 -0.1544
14866SOL     OW46038   3.371   5.477   1.585 -0.1838 -0.3343 -0.1429
14866SOL    HW146039   3.375   5.562   1.628 -0.5151 -0.4522  0.1351
14866SOL    HW246040   3.285   5.441   1.611  0.3172 -1.1274  0.4729
14867SOL     OW46041   5.133   5.220   4.832 -0.9170 -0.5046  0.3491
14867SOL    HW146042   5.123   5.287   4.899 -1.4597  0.5516 -0.7393
14867SOL    HW246043   5.193   5.258   4.768 -2.1149 -0.5715 -0.8578
14868SOL     OW46044   2.271   5.955   3.413 -0.0439 -0.6420 -0.0159
14868SOL    HW146045   2.177   5.945   3.428 -0.0975 -0.7177 -0.3975
14868SOL    HW246046   2.283   5.937   3.320  0.3402 -0.5668  0.0162
14869SOL     OW46047   0.073   4.081  12.017  0.2777 -0.4165  0.4706
14869SOL    HW146048   0.091   3.993  11.984  1.0263  0.1887 -0.8478
14869SOL    HW246049   0.071   4.136  11.938  0.4813  0.8455  1.3133
14870SOL     OW46050   3.542   0.773   7.647 -0.2849 -0.6478 -0.1819
14870SOL    HW146051   3.633   0.756   7.624 -0.2373 -0.8705  0.1582
14870SOL    HW246052   3.493   0.704   7.602 -0.0867 -1.7611  1.2288
14871SOL     OW46053   7.736   7.515   3.119  0.2612  0.7295  0.3983
14871SOL    HW146054   7.792   7.572   3.171  0.3499 -0.0996  1.2284
14871SOL    HW246055   7.654   7.562   3.112  0.5389  1.2418  0.5340
14872SOL     OW46056   5.215   0.727   8.331 -0.0753  0.3572 -0.1927
14872SOL    HW146057   5.270   0.670   8.277 -0.5866 -0.9693  0.6279
14872SOL    HW246058   5.134   0.737   8.281 -0.0484  0.2150 -0.2653
14873SOL     OW46059   5.514   2.522  11.647 -0.3902  0.0685  0.1565
14873SOL    HW146060   5.439   2.563  11.604 -0.1722  0.0511 -0.2457
14873SOL    HW246061   5.480   2.492  11.732 -0.6634  0.6779  0.2665
14874SOL     OW46062   6.776   6.790  11.617 -0.0376 -0.0019 -0.2851
14874SOL    HW146063   6.842   6.788  11.686  0.0079 -0.0855 -0.3313
14874SOL    HW246064   6.705   6.845  11.652  1.1415  2.2810 -1.2094
14875SOL     OW46065   6.696   6.490   3.388 -0.7492 -0.2072  0.4697
14875SOL    HW146066   6.662   6.552   3.323 -1.8813 -1.9056 -0.6098
14875SOL    HW246067   6.735   6.420   3.337 -0.5081 -0.9553  1.6430
14876SOL     OW46068   1.949   2.115   4.044  0.1109 -0.0507 -0.0730
14876SOL    HW146069   1.965   2.049   4.111 -0.4412  1.3538  1.4985
14876SOL    HW246070   1.977   2.198   4.083 -0.9212  0.9197 -1.2857
14877SOL     OW46071   6.494   3.546   9.101  0.1899  0.3880 -0.8230
14877SOL    HW146072   6.575   3.499   9.080 -0.4881 -0.9675 -0.5200
14877SOL    HW246073   6.424   3.490   9.068 -0.6969  0.6133  0.5753
14878SOL     OW46074   5.189   2.611   1.982  0.6035 -0.0534 -0.2158
14878SOL    HW146075   5.201   2.611   1.887 -3.0422  1.3478 -0.8576
14878SOL    HW246076   5.173   2.519   2.004  2.0267 -0.4716 -0.8157
14879SOL     OW46077   3.796   1.060  11.248  0.2207 -0.3111  0.0449
14879SOL    HW146078   3.791   1.082  11.155 -1.0605  0.4846  0.2829
14879SOL    HW246079   3.726   1.111  11.289 -0.2048 -1.7663  1.2270
14880SOL     OW46080   5.865   2.803   8.211  0.0486 -0.0525 -0.1311
14880SOL    HW146081   5.787   2.859   8.208 -0.3987 -0.6990 -2.2123
14880SOL    HW246082   5.865   2.758   8.126  2.4512 -0.4063  0.0041
14881SOL     OW46083   5.844   7.197   3.723  0.3768 -0.2951  0.7110
14881SOL    HW146084   5.777   7.154   3.776 -1.1714 -1.3803 -1.9133
14881SOL    HW246085   5.898   7.125   3.689  1.0265  0.3204  0.4111
14882SOL     OW46086   3.738   1.686  11.153  0.1715 -0.3741  0.0002
14882SOL    HW146087   3.706   1.723  11.235 -0.8839 -0.5621 -0.3060
14882SOL    HW246088   3.825   1.652  11.173  0.3155  0.4360  0.7929
14883SOL     OW46089   5.481   1.533   4.467  0.5496  0.5932  0.0680
14883SOL    HW146090   5.515   1.507   4.381  0.9260  1.5660 -0.0933
14883SOL    HW246091   5.395   1.492   4.473  0.7130  0.1449 -0.5847
14884SOL     OW46092   5.422   0.804   0.485 -0.3603  0.1833 -0.2000
14884SOL    HW146093   5.466   0.850   0.414  0.4964 -1.8191 -1.0616
14884SOL    HW246094   5.489   0.747   0.522 -1.3694 -0.4474  0.7316
14885SOL     OW46095   7.815   6.197   3.747 -0.7226 -0.7235  0.1248
14885SOL    HW146096   7.769   6.269   3.704 -0.8121 -1.5845 -1.3063
14885SOL    HW246097   7.746   6.146   3.789 -0.6831 -0.1399  0.9323
14886SOL     OW46098   5.023   3.649   5.059 -0.0387  0.2667 -0.3397
14886SOL    HW146099   5.077   3.719   5.095 -0.2611  0.5438 -0.5323
14886SOL    HW246100   4.955   3.695   5.009 -0.9912 -0.0314  0.6355
14887SOL     OW46101   7.491   5.927   4.689 -0.3788 -0.7434 -0.1132
14887SOL    HW146102   7.435   5.862   4.730 -2.3948  0.8850 -0.0882
14887SOL    HW246103   7.507   5.894   4.601 -0.2558 -1.8845  0.3319
14888SOL     OW46104   4.718   6.922  12.417  1.0011  0.4023  0.2633
14888SOL    HW146105   4.752   6.908  12.505 -0.1060  1.9801  1.0085
14888SOL    HW246106   4.669   7.004  12.424  0.2495  0.1614 -1.6424
14889SOL     OW46107   3.977   6.135   3.895 -0.7701  0.0379 -0.3685
14889SOL    HW146108   3.898   6.177   3.929  0.0007  0.8295  0.5018
14889SOL    HW246109   4.030   6.207   3.862 -0.5049 -0.5089 -1.1643
14890SOL     OW46110   2.323   4.833   1.207 -0.2633 -0.1605 -0.0140
14890SOL    HW146111   2.291   4.849   1.295  0.0783 -0.3188  0.1415
14890SOL    HW246112   2.400   4.777   1.219 -0.4897 -0.5700 -0.4422
14891SOL     OW46113   7.843   1.639   5.810 -0.2536  0.1331  0.5698
14891SOL    HW146114   7.833   1.626   5.904  1.1477  0.2107  0.7534
14891SOL    HW246115   7.852   1.550   5.775  1.9934  0.1862  0.8903
14892SOL     OW46116   2.713   0.466   7.909 -0.3978 -0.0619  0.1901
14892SOL    HW146117   2.800   0.505   7.904 -0.7936  0.8481  0.3275
14892SOL    HW246118   2.669   0.494   7.829 -0.4958 -0.7181  0.0041
14893SOL     OW46119   1.824   5.545   3.229  0.2185  0.1612  0.2795
14893SOL    HW146120   1.777   5.616   3.185 -1.7120 -1.3042 -0.1232
14893SOL    HW246121   1.850   5.583   3.313 -0.8710  1.3083  0.1281
14894SOL     OW46122   6.940   6.734  11.821  0.5554 -0.0747  0.4588
14894SOL    HW146123   6.903   6.712  11.906 -0.2538 -1.8223 -0.2875
14894SOL    HW246124   7.001   6.663  11.802 -1.8413 -1.7495 -1.8727
14895SOL     OW46125   7.872   4.979  12.405  0.0981  0.0293 -0.4056
14895SOL    HW146126   7.801   5.013  12.460  1.6759  0.8680  1.2013
14895SOL    HW246127   7.927   4.929  12.465  1.0104 -0.4212 -1.5762
14896SOL     OW46128   1.413   2.491   4.557  0.2050 -0.0596 -0.3967
14896SOL    HW146129   1.441   2.420   4.614  1.1428  1.0677  0.5694
14896SOL    HW246130   1.325   2.513   4.588  1.4313  1.8723  2.0189
14897SOL     OW46131   4.138   1.555   3.491  0.6555  0.5815  0.1650
14897SOL    HW146132   4.107   1.479   3.441  0.2569  0.7492  0.1510
14897SOL    HW246133   4.076   1.564   3.562  1.3732  0.1870  0.8552
14898SOL     OW46134   6.344   6.769   3.545  0.3299  0.1360 -0.1826
14898SOL    HW146135   6.311   6.772   3.635  0.1105 -0.8043 -0.2249
14898SOL    HW246136   6.318   6.853   3.507 -0.0093  0.3377  0.4770
14899SOL     OW46137   5.207   6.608   6.436 -0.8781  0.0594  0.0865
14899SOL    HW146138   5.192   6.636   6.346 -1.5220 -1.3533 -0.2750
14899SOL    HW246139   5.170   6.519   6.440 -0.3452 -0.1230  1.5832
14900SOL     OW46140   2.091   6.505   7.076  0.2939  0.2875  0.1156
14900SOL    HW146141   2.028   6.577   7.075  0.7186  0.7387 -2.3171
14900SOL    HW246142   2.071   6.456   7.155 -1.7736  1.5663  0.4639
14901SOL     OW46143   2.328   6.183   9.926  0.3526 -0.1587  0.4312
14901SOL    HW146144   2.408   6.207   9.973  0.8272  1.1491 -0.9693
14901SOL    HW246145   2.271   6.259   9.935  0.9214  0.6555 -2.0363
14902SOL     OW46146   5.543   0.065   5.685  0.4024  0.0453 -0.2205
14902SOL    HW146147   5.493   0.105   5.756  0.7461 -0.2584  0.1950
14902SOL    HW246148   5.580  -0.014   5.722 -1.3940 -1.4343 -1.4214
14903SOL     OW46149   5.557   2.922   4.270  0.1049  0.1604  0.1169
14903SOL    HW146150   5.476   2.965   4.246 -0.4005 -0.3346  0.8768
14903SOL    HW246151   5.589   2.970   4.347 -0.3444 -0.6442  0.8279
14904SOL     OW46152   2.131   3.527   2.459  0.2450 -0.3054  0.5412
14904SOL    HW146153   2.038   3.515   2.478  0.3527  1.0509  2.1833
14904SOL    HW246154   2.132   3.576   2.376 -0.4096 -1.8293 -0.4130
14905SOL     OW46155   5.506   0.363  12.271 -0.5412  0.1053 -0.0494
14905SOL    HW146156   5.501   0.389  12.179 -0.2878 -1.1686 -0.4368
14905SOL    HW246157   5.563   0.429  12.311 -0.3919  0.4927 -0.8750
14906SOL     OW46158   1.058   5.496  11.500 -0.1070  0.4745  0.1559
14906SOL    HW146159   1.057   5.590  11.481 -2.4207  0.3732 -0.5635
14906SOL    HW246160   0.969   5.477  11.529 -0.2179 -1.8066 -1.4137
14907SOL     OW46161   2.965   2.798   9.352 -0.5685  0.1354  0.1857
14907SOL    HW146162   3.048   2.772   9.313  0.4455  2.1189  0.8629
14907SOL    HW246163   2.911   2.827   9.278 -0.7490 -1.2964 -0.2700
14908SOL     OW46164   3.259   7.253   3.651 -0.4567 -0.1330  0.3048
14908SOL    HW146165   3.228   7.294   3.570  2.3623  0.5873 -0.5317
14908SOL    HW246166   3.265   7.160   3.629 -0.5114 -0.0554 -0.0495
14909SOL     OW46167   5.257   5.085   2.817  0.0812 -0.6785  0.0521
14909SOL    HW146168   5.208   5.052   2.892 -0.3495 -1.3624 -0.5231
14909SOL    HW246169   5.241   5.021   2.748  0.1557  0.1465 -0.7415
14910SOL     OW46170   5.789   7.411   7.715  0.1855 -0.1419  0.2449
14910SOL    HW146171   5.863   7.420   7.775  0.3102  0.1542  0.0487
14910SOL    HW246172   5.774   7.317   7.710  0.3335 -0.1836  0.5466
14911SOL     OW46173   3.688   7.753   2.421 -0.4696 -0.0705  0.1034
14911SOL    HW146174   3.652   7.735   2.334 -0.5076  2.0329 -0.3666
14911SOL    HW246175   3.646   7.835   2.448  1.5042  0.7173  0.9595
14912SOL     OW46176   3.273   7.618   7.962 -0.0957 -0.3655  0.6363
14912SOL    HW146177   3.288   7.648   7.872  1.2808  1.1643  1.3132
14912SOL    HW246178   3.332   7.543   7.972 -0.5457 -0.7918  0.1586
14913SOL     OW46179   6.404   0.637   3.138  0.5990 -0.0912 -0.2018
14913SOL    HW146180   6.310   0.642   3.123  0.2259  0.5986  2.0658
14913SOL    HW246181   6.441   0.706   3.083 -0.3998  0.6975  0.0829
14914SOL     OW46182   7.683   7.460   6.502  0.0955 -0.2005  0.2826
14914SOL    HW146183   7.691   7.411   6.583  0.5965  0.2807  0.5266
14914SOL    HW246184   7.754   7.523   6.504 -0.9372  1.0140  0.2929
14915SOL     OW46185   2.021   0.576   9.673 -0.1196 -0.1631 -0.1434
14915SOL    HW146186   2.086   0.549   9.737  0.4788  0.5764 -0.4200
14915SOL    HW246187   1.982   0.495   9.642  1.3602 -0.6983 -0.6913
14916SOL     OW46188   0.345   2.036  11.219  0.1644  0.3609  0.2263
14916SOL    HW146189   0.343   1.941  11.202 -1.8268  0.5157 -0.7460
14916SOL    HW246190   0.412   2.047  11.286 -0.5050 -1.9122  1.3721
14917SOL     OW46191   4.653   6.653   0.960 -0.1805  0.6902 -0.1424
14917SOL    HW146192   4.652   6.570   1.009 -0.6280  0.6896 -0.1448
14917SOL    HW246193   4.654   6.720   1.028 -0.2085  0.6848 -0.1363
14918SOL     OW46194   3.574   4.323  11.102  0.4774 -0.3096  0.0035
14918SOL    HW146195   3.532   4.309  11.018 -1.0757  0.5355  0.6015
14918SOL    HW246196   3.503   4.317  11.166  1.2388  1.1488  1.0541
14919SOL     OW46197   4.342   4.590   2.922  0.1094 -0.0050 -0.6184
14919SOL    HW146198   4.394   4.521   2.881  0.8343  0.8999 -1.2515
14919SOL    HW246199   4.372   4.593   3.013  0.6314  0.0092 -0.7905
14920SOL     OW46200   7.579   0.451   8.549  0.0171 -0.7940  0.2867
14920SOL    HW146201   7.600   0.420   8.637  0.4797  0.3682  0.6117
14920SOL    HW246202   7.631   0.531   8.539  1.3967 -1.8409 -1.7389
14921SOL     OW46203   1.835   3.423  10.080 -0.3584  0.7233  0.3460
14921SOL    HW146204   1.883   3.497  10.043  1.0155 -0.3435 -0.1206
14921SOL    HW246205   1.904   3.367  10.117 -1.3329 -0.4532  0.4278
14922SOL     OW46206   3.364   1.677  11.944 -0.6927 -0.5683  0.3432
14922SOL    HW146207   3.380   1.742  12.012 -0.4633 -1.2463  0.9374
14922SOL    HW246208   3.285   1.708  11.900  0.9600  1.7491 -1.3238
14923SOL     OW46209   4.378   4.168   0.893 -0.1753 -0.3233 -0.2932
14923SOL    HW146210   4.361   4.254   0.932  0.2353  0.1430 -1.1115
14923SOL    HW246211   4.292   4.138   0.864 -0.2009  0.1947 -0.7601
14924SOL     OW46212   3.935   6.814   8.542 -0.8054  0.4472  0.1949
14924SOL    HW146213   4.031   6.820   8.537 -0.7594 -0.2988  0.0463
14924SOL    HW246214   3.916   6.811   8.635 -0.5946 -0.5362  0.2155
14925SOL     OW46215   5.697   5.629   1.709 -0.3722  0.8539 -0.6503
14925SOL    HW146216   5.666   5.574   1.780 -0.8590  0.9641 -0.7767
14925SOL    HW246217   5.664   5.717   1.730  1.7770  1.4876  0.4359
14926SOL     OW46218   2.480   5.111  11.399 -0.2349 -0.6865 -0.5240
14926SOL    HW146219   2.448   5.098  11.488 -1.0204 -0.2312 -0.7368
14926SOL    HW246220   2.423   5.179  11.362  0.5557 -0.3339 -1.1251
14927SOL     OW46221   6.132   7.193   8.046  0.7779  0.3350 -0.3855
14927SOL    HW146222   6.177   7.108   8.047  1.2115  0.5151 -2.2441
14927SOL    HW246223   6.045   7.174   8.011  0.1821  0.3881  0.9794
14928SOL     OW46224   1.772   3.622   0.038 -0.2342  0.0698 -0.4823
14928SOL    HW146225   1.697   3.563   0.038  0.5201 -0.9618  0.9448
14928SOL    HW246226   1.827   3.592  -0.034 -1.6134  1.4876 -2.2160
14929SOL     OW46227   7.786   6.254   8.736  0.4368  0.2260 -0.0863
14929SOL    HW146228   7.760   6.346   8.730  1.4805  0.4705 -1.2025
14929SOL    HW246229   7.840   6.249   8.815 -0.3477  0.3667  0.4730
14930SOL     OW46230   7.060   6.944   0.066  0.2683  0.1100  0.5483
14930SOL    HW146231   7.067   7.030   0.110 -0.9729  0.9505 -0.8198
14930SOL    HW246232   7.005   6.892   0.125 -0.1853  0.7461  0.7050
14931SOL     OW46233   2.986   2.209  11.372 -0.2658  0.3878 -0.4549
14931SOL    HW146234   2.920   2.188  11.437 -1.0124  0.9038 -1.0329
14931SOL    HW246235   2.937   2.229  11.292  0.6431 -0.5640 -1.2848
14932SOL     OW46236   0.728   3.778   4.466 -0.1032  0.4985  0.0327
14932SOL    HW146237   0.769   3.756   4.383  2.0196 -2.2832  1.6497
14932SOL    HW246238   0.658   3.713   4.477  1.7254 -1.3400  1.7398
14933SOL     OW46239   4.668   4.488   6.002 -0.2561  0.0709  0.3781
14933SOL    HW146240   4.631   4.541   6.072 -0.3653  0.2629  0.1738
14933SOL    HW246241   4.629   4.522   5.922  0.9721  0.8224  0.0715
14934SOL     OW46242   2.508   2.965  11.267 -0.3481  0.0026 -0.1004
14934SOL    HW146243   2.520   2.937  11.176  2.3008 -0.1033  0.2202
14934SOL    HW246244   2.562   3.043  11.275 -0.6587  0.0816  1.3493
14935SOL     OW46245   6.513   4.163   0.090  0.3083  0.4613  0.1742
14935SOL    HW146246   6.586   4.104   0.072  0.9223  0.9658  0.8899
14935SOL    HW246247   6.541   4.247   0.052 -0.5675  0.2964 -0.8679
14936SOL     OW46248   3.139   6.317   7.802  0.3427  0.2190 -0.3184
14936SOL    HW146249   3.228   6.352   7.804  0.7744 -0.8983  0.4634
14936SOL    HW246250   3.148   6.224   7.822 -0.9616 -0.0044 -0.6366
14937SOL     OW46251   2.967   6.483   5.443 -0.3901  0.8773 -0.3378
14937SOL    HW146252   2.973   6.556   5.381 -0.1952  1.0988 -0.0593
14937SOL    HW246253   2.967   6.405   5.387 -0.7176  1.0919 -0.6443
14938SOL     OW46254   1.880   3.533   1.413 -0.2098  0.2259 -0.5602
14938SOL    HW146255   1.894   3.628   1.413 -2.6200  0.6640 -1.4433
14938SOL    HW246256   1.842   3.515   1.326 -2.3820 -1.0690  0.5769
14939SOL     OW46257   3.588   2.064   1.608  0.1611 -0.4542  0.0872
14939SOL    HW146258   3.555   2.002   1.673  2.9266  0.1164  2.2185
14939SOL    HW246259   3.616   2.009   1.535  1.1926 -1.6255  1.3099
14940SOL     OW46260   0.778   2.912   1.369 -0.3994 -0.1154  0.1176
14940SOL    HW146261   0.688   2.880   1.373 -0.3664 -0.1330  0.8651
14940SOL    HW246262   0.809   2.907   1.460 -0.1341  1.2581  0.1257
14941SOL     OW46263   2.887   4.808   9.027  0.7138 -0.2607 -0.6155
14941SOL    HW146264   2.910   4.718   9.051 -1.4460 -0.6413  0.2969
14941SOL    HW246265   2.942   4.863   9.083  1.3580 -1.0094 -0.4946
14942SOL     OW46266   0.173   0.753   6.769 -0.0014  0.6249 -0.3366
14942SOL    HW146267   0.117   0.680   6.796  0.3899  0.4515  0.0126
14942SOL    HW246268   0.111   0.821   6.740 -0.3940  0.4397  0.0516
14943SOL     OW46269   1.125   0.376   3.180 -0.4163  0.0389 -0.0598
14943SOL    HW146270   1.133   0.470   3.196 -0.0777  0.0786 -0.4659
14943SOL    HW246271   1.208   0.351   3.141 -1.1891 -0.0717 -1.7105
14944SOL     OW46272   5.390   6.991   6.860 -0.3235  0.2285  0.0402
14944SOL    HW146273   5.471   6.993   6.911 -0.8660 -1.4413  1.0654
14944SOL    HW246274   5.412   7.036   6.779  0.7502  2.4499  1.4552
14945SOL     OW46275   2.232   4.095   3.489 -0.0077 -0.2875  0.5212
14945SOL    HW146276   2.154   4.114   3.437  0.6825 -1.3210 -0.9755
14945SOL    HW246277   2.233   4.162   3.557 -1.7343  0.2510  0.0673
14946SOL     OW46278   7.915   6.447   7.345 -0.2849  0.1993  0.3048
14946SOL    HW146279   7.863   6.457   7.265 -0.9419 -1.7098  0.4441
14946SOL    HW246280   7.852   6.417   7.411  0.9028 -2.0799  0.4979
14947SOL     OW46281   0.933   2.337   8.789 -0.2846  0.1561 -0.1478
14947SOL    HW146282   1.029   2.341   8.797 -0.2175  0.8501 -1.1300
14947SOL    HW246283   0.904   2.294   8.870  0.7264  1.5469  1.0015
14948SOL     OW46284   5.240   3.393   5.093  0.0478  0.0173 -0.1474
14948SOL    HW146285   5.237   3.451   5.168  0.4711 -1.2068  0.8546
14948SOL    HW246286   5.195   3.441   5.023 -2.1549  0.3942  1.4287
14949SOL     OW46287   2.966   2.650  11.228 -0.4391  0.1812 -0.1276
14949SOL    HW146288   2.903   2.714  11.195 -0.2692 -0.3543 -1.5506
14949SOL    HW246289   2.974   2.671  11.321 -4.1520 -0.9043  0.6167
14950SOL     OW46290   0.510   3.330   6.849 -0.0694 -0.1021  0.0820
14950SOL    HW146291   0.467   3.416   6.850 -0.7984 -0.4658  0.9284
14950SOL    HW246292   0.439   3.269   6.830 -0.0951 -0.7848  2.1952
14951SOL     OW46293   0.766   0.604   7.384  0.0025  0.0250  0.2272
14951SOL    HW146294   0.676   0.604   7.352 -0.4955  1.4620  1.5116
14951SOL    HW246295   0.817   0.566   7.312 -1.3342  1.1761 -1.4177
14952SOL     OW46296   7.268   0.972   3.940 -1.0305 -0.3430 -0.1201
14952SOL    HW146297   7.234   0.887   3.915  0.3721 -0.7431 -0.7335
14952SOL    HW246298   7.331   0.954   4.010  1.5014 -0.2047 -2.2234
14953SOL     OW46299   1.768   6.607  10.895 -0.2885 -0.2340 -0.4206
14953SOL    HW146300   1.839   6.618  10.832  0.3392 -0.2576  0.2661
14953SOL    HW246301   1.710   6.682  10.880 -0.1440 -0.2333 -1.0048
14954SOL     OW46302   1.015   0.635   1.902 -0.4275 -0.5675 -0.5254
14954SOL    HW146303   1.017   0.627   1.806 -0.4883  1.8601 -0.7933
14954SOL    HW246304   1.106   0.648   1.927 -0.3379 -1.7702 -0.1436
14955SOL     OW46305   5.497   5.705   4.130  0.1204  0.1612  0.3128
14955SOL    HW146306   5.551   5.655   4.192 -1.6218 -1.5339  0.5532
14955SOL    HW246307   5.560   5.748   4.072  1.7385 -0.3052  1.6516
14956SOL     OW46308   2.923   2.924  12.371 -0.3953  0.5600 -0.6704
14956SOL    HW146309   2.963   2.855  12.424  0.4126  1.6383  0.1533
14956SOL    HW246310   2.938   3.004  12.420 -0.3318  1.4924 -2.1425
14957SOL     OW46311   6.684   2.296  11.264 -0.0258  0.3976 -0.6095
14957SOL    HW146312   6.614   2.361  11.269 -0.5481 -0.0967 -1.2675
14957SOL    HW246313   6.711   2.283  11.355 -0.1473  1.2762 -0.4367
14958SOL     OW46314   5.352   5.046   8.297  0.2254 -0.0517 -0.2187
14958SOL    HW146315   5.402   5.001   8.228  1.3142  0.1107  0.4299
14958SOL    HW246316   5.404   5.124   8.317  1.2524 -1.2827  2.4096
14959SOL     OW46317   6.534   2.632  11.668  0.3144 -0.5625  0.1840
14959SOL    HW146318   6.587   2.686  11.727  1.0120 -0.4606 -0.5216
14959SOL    HW246319   6.446   2.636  11.705  0.0384  2.1229 -0.5281
14960SOL     OW46320   0.797   3.975   0.770  0.0777  0.3343  0.0838
14960SOL    HW146321   0.711   3.984   0.812 -0.2291  3.1616 -0.9361
14960SOL    HW246322   0.780   3.923   0.692  0.0304 -2.0811  1.5919
14961SOL     OW46323   5.446   1.589   2.597 -0.2399  0.2492  0.5136
14961SOL    HW146324   5.461   1.662   2.536  1.4311 -1.1038 -0.8049
14961SOL    HW246325   5.358   1.605   2.631  0.3185  3.2623  0.8658
14962SOL     OW46326   3.997   6.523  10.270  0.3935  0.1465 -0.7437
14962SOL    HW146327   3.974   6.605  10.225 -2.7005 -1.3351 -2.1450
14962SOL    HW246328   4.080   6.497  10.230 -0.1188  1.0600 -2.5109
14963SOL     OW46329   4.745   1.892  10.224  0.0391 -0.4583  0.3832
14963SOL    HW146330   4.654   1.884  10.198  0.3112 -0.1962 -0.6736
14963SOL    HW246331   4.763   1.813  10.275 -0.3100 -1.3171 -0.8044
14964SOL     OW46332   4.990   1.509   7.837  0.3775 -0.4929 -0.0424
14964SOL    HW146333   5.010   1.423   7.873  1.6645  0.0151  0.5300
14964SOL    HW246334   5.014   1.570   7.906 -1.3925  0.3135 -0.0831
14965SOL     OW46335   4.666   2.351   8.673 -0.3441  0.0206 -0.2439
14965SOL    HW146336   4.646   2.295   8.598 -2.2775 -1.4906  1.2723
14965SOL    HW246337   4.749   2.317   8.707  0.6164  0.8166 -1.7471
14966SOL     OW46338   3.754   7.374   0.747 -0.6573 -0.2544 -0.0659
14966SOL    HW146339   3.796   7.334   0.823 -2.3534 -0.3786  0.8716
14966SOL    HW246340   3.802   7.456   0.733 -1.1743  0.4828  2.0767
14967SOL     OW46341   7.644   7.304   1.347 -0.4680 -0.3820 -0.0795
14967SOL    HW146342   7.551   7.300   1.327 -0.9534  2.3167  1.1475
14967SOL    HW246343   7.687   7.300   1.262 -1.5768 -2.6435 -0.6115
14968SOL     OW46344   2.924   5.002  10.772 -0.5553  0.1386  0.1174
14968SOL    HW146345   2.896   4.929  10.717  1.2303 -0.3626 -0.1815
14968SOL    HW246346   2.957   4.962  10.852 -2.1208  0.8075  1.1338
14969SOL     OW46347   6.320   0.634  12.175 -0.0059 -0.6373  0.3248
14969SOL    HW146348   6.360   0.591  12.100  1.7080 -1.4427  1.6219
14969SOL    HW246349   6.303   0.724  12.145  0.1595 -1.0837 -1.1621
14970SOL     OW46350   3.017   1.266   9.395 -0.1865  0.0406 -0.1775
14970SOL    HW146351   2.921   1.262   9.394 -0.1771 -0.1699 -1.4915
14970SOL    HW246352   3.039   1.284   9.487 -1.4290 -1.2631  0.4121
14971SOL     OW46353   3.241   4.388   1.214  0.3891  0.4639 -0.1059
14971SOL    HW146354   3.199   4.418   1.133  3.0836  1.2261 -1.3351
14971SOL    HW246355   3.178   4.328   1.253 -0.7240 -0.5506 -3.1657
14972SOL     OW46356   2.725   3.963   1.410  0.1400  0.3813 -0.7265
14972SOL    HW146357   2.747   3.871   1.396 -0.0987  0.4267 -1.4528
14972SOL    HW246358   2.651   3.979   1.352 -0.6616  0.7002  0.3377
14973SOL     OW46359   2.462   1.205   6.102  0.4167  0.3729 -0.0045
14973SOL    HW146360   2.399   1.147   6.059 -0.4020  0.5767  0.8816
14973SOL    HW246361   2.481   1.162   6.185  0.1619  1.1266  0.4585
14974SOL     OW46362   4.018   5.727   0.228  0.3169  0.0357 -0.1904
14974SOL    HW146363   4.004   5.649   0.174  0.8368 -0.4001  0.2969
14974SOL    HW246364   4.112   5.742   0.225  0.3888 -0.1629  0.8247
14975SOL     OW46365   1.550   3.863   4.920 -0.0270  0.5816 -0.3482
14975SOL    HW146366   1.532   3.880   4.827  0.6661 -1.3330 -0.8793
14975SOL    HW246367   1.569   3.770   4.924 -0.2795  0.5720  1.7854
14976SOL     OW46368   7.326   6.061   8.180 -0.0688 -0.4177 -0.1634
14976SOL    HW146369   7.316   6.148   8.218 -0.0368  0.0441 -1.1705
14976SOL    HW246370   7.306   6.074   8.087  1.5638 -1.1347 -0.6451
14977SOL     OW46371   2.111   4.107   6.319  0.3110  0.2430  0.2245
14977SOL    HW146372   2.187   4.137   6.268  0.7684  0.0090  0.7572
14977SOL    HW246373   2.095   4.018   6.288 -0.1321  0.5053 -0.3177
14978SOL     OW46374   0.626   6.325   8.997 -0.3182 -0.4847  0.3161
14978SOL    HW146375   0.715   6.357   8.988 -1.0163  1.7165  0.7551
14978SOL    HW246376   0.586   6.338   8.910  0.1589 -2.8867 -0.3372
14979SOL     OW46377   5.908   5.508   3.871  0.3271 -0.4636 -0.2374
14979SOL    HW146378   5.839   5.569   3.844 -0.4726 -0.9253  0.7175
14979SOL    HW246379   5.956   5.491   3.790 -0.9096 -0.4269 -1.0137
14980SOL     OW46380   5.729   5.236  12.236 -0.2723  0.2644  0.2507
14980SOL    HW146381   5.734   5.151  12.280  1.0666 -0.3104 -0.9245
14980SOL    HW246382   5.715   5.299  12.306  1.3850 -0.6494  1.4741
14981SOL     OW46383   7.424   3.682   3.197  0.3931 -0.5656 -0.2640
14981SOL    HW146384   7.399   3.703   3.287  1.2921 -0.4823 -0.0200
14981SOL    HW246385   7.348   3.637   3.160  0.0108 -0.5805  0.5295
14982SOL     OW46386   6.229   6.063   3.489  0.2314 -0.2569 -0.0614
14982SOL    HW146387   6.163   6.092   3.425 -0.6256 -2.4499 -0.2670
14982SOL    HW246388   6.304   6.036   3.435  0.5897  0.4894  0.0551
14983SOL     OW46389   1.480   0.007   9.982  0.2697  0.0803  0.5182
14983SOL    HW146390   1.521  -0.064   9.932  0.4527 -0.8344  1.9115
14983SOL    HW246391   1.474   0.080   9.920 -0.4249 -1.3120 -1.1248
14984SOL     OW46392   2.420   5.978   8.841 -0.2449  0.1816 -0.6610
14984SOL    HW146393   2.444   5.987   8.749  0.0241 -0.6457 -0.6798
14984SOL    HW246394   2.344   5.920   8.840 -0.9782  1.1204 -0.4433
14985SOL     OW46395   4.421   1.443   0.816 -0.4554 -0.7179 -0.9203
14985SOL    HW146396   4.462   1.482   0.893 -0.1020 -1.1923 -0.8695
14985SOL    HW246397   4.462   1.487   0.742 -3.0028  2.0997 -0.8828
14986SOL     OW46398   3.279   2.272   4.322  0.3134  0.1567 -0.5151
14986SOL    HW146399   3.206   2.218   4.350  0.1704  0.7916  0.3677
14986SOL    HW246400   3.239   2.355   4.295  0.4912 -0.2549 -2.1783
14987SOL     OW46401   6.176   6.705   9.996 -0.3419 -0.5095 -0.3406
14987SOL    HW146402   6.167   6.787  10.044  0.7823 -0.4806 -0.1426
14987SOL    HW246403   6.088   6.668   9.994 -0.6199  0.0397  0.7683
14988SOL     OW46404   3.502   2.207   3.777  0.1010  0.3269  0.7301
14988SOL    HW146405   3.439   2.136   3.792  2.2111 -1.9526 -0.3752
14988SOL    HW246406   3.588   2.164   3.778  1.4708  2.7753 -0.6090
14989SOL     OW46407   7.619   3.970   0.043 -0.3643 -0.1499  0.1996
14989SOL    HW146408   7.678   4.013   0.105 -0.5832 -1.5724  1.4457
14989SOL    HW246409   7.594   3.888   0.085 -0.4049 -1.2688 -1.8391
14990SOL     OW46410   1.450   6.851  11.403  0.6902  0.3513  0.2429
14990SOL    HW146411   1.530   6.821  11.447  0.0046 -1.2637  0.4528
14990SOL    HW246412   1.379   6.824  11.461 -0.0040  2.7418  0.5904
14991SOL     OW46413   0.494   2.266  10.729  0.2278  0.1088  0.1166
14991SOL    HW146414   0.582   2.303  10.720 -0.3322  1.1035 -2.2715
14991SOL    HW246415   0.497   2.187  10.675 -0.6894  0.9434 -1.2160
14992SOL     OW46416   5.882   2.764   4.838 -0.2036 -0.0351  0.3468
14992SOL    HW146417   5.866   2.859   4.837  0.4773  0.0942  0.8022
14992SOL    HW246418   5.960   2.754   4.892 -0.4919 -0.8965  0.6166
14993SOL     OW46419   3.863   4.598   6.188  0.2654  0.1100  0.7307
14993SOL    HW146420   3.956   4.584   6.208  0.0857 -0.8164  0.9285
14993SOL    HW246421   3.859   4.601   6.092  0.7577  2.0398  0.7270
14994SOL     OW46422   3.313   3.842  12.065  0.5792 -0.4414 -0.2253
14994SOL    HW146423   3.268   3.775  12.117  0.5324 -0.7932 -0.7126
14994SOL    HW246424   3.385   3.795  12.023  0.2684 -0.2877 -0.9345
14995SOL     OW46425   7.625   7.792   6.901  0.0933 -0.5365 -0.4637
14995SOL    HW146426   7.586   7.849   6.968 -0.3585  0.5135 -1.5849
14995SOL    HW246427   7.553   7.736   6.873 -0.6236  1.1958 -2.3156
14996SOL     OW46428   7.331   5.565  11.343  0.1111  1.1974 -0.1112
14996SOL    HW146429   7.349   5.631  11.275 -0.1921  0.2695 -1.1232
14996SOL    HW246430   7.255   5.517  11.310 -1.0181  1.6937  1.6258
14997SOL     OW46431   3.281   0.177   4.013  0.2991  0.1755  0.1884
14997SOL    HW146432   3.316   0.096   3.978  0.1079  0.1381  0.0876
14997SOL    HW246433   3.329   0.246   3.966 -0.6489  0.1391 -0.8592
14998SOL     OW46434   5.103   0.781   1.969  0.5564 -0.2820  0.1797
14998SOL    HW146435   5.071   0.827   1.891 -0.0951 -1.8273 -0.5028
14998SOL    HW246436   5.083   0.841   2.042  0.7843  1.0017 -0.7695
14999SOL     OW46437   6.349   0.150   8.017  0.4160  0.0473 -0.3076
14999SOL    HW146438   6.378   0.059   8.024 -0.9090 -0.4261 -0.7180
14999SOL    HW246439   6.406   0.188   7.951  2.6175  0.2320  1.5612
15000SOL     OW46440   2.045   0.151   0.802  0.0348 -0.0818  0.1743
15000SOL    HW146441   2.003   0.068   0.777  0.0308 -0.2505  0.7172
15000SOL    HW246442   2.060   0.197   0.719 -0.5078 -0.3651 -0.0871
15001SOL     OW46443   3.964   0.017  12.273  0.4523  0.1228 -0.0119
15001SOL    HW146444   3.951   0.036  12.180  1.4602  3.0603  0.3615
15001SOL    HW246445   3.934   0.096  12.318 -0.2660 -1.3286  2.2288
15002SOL     OW46446   5.015   4.604   3.703  0.3289 -0.7291  0.0066
15002SOL    HW146447   5.099   4.595   3.657 -0.7780  0.4256 -2.4116
15002SOL    HW246448   4.982   4.689   3.675 -2.5383 -1.9573 -0.6347
15003SOL     OW46449   5.417   5.483  10.568 -0.6106  0.0929  0.1793
15003SOL    HW146450   5.506   5.488  10.534  0.3376  1.4562  2.5942
15003SOL    HW246451   5.362   5.516  10.497  0.8035 -0.4921 -1.2541
15004SOL     OW46452   4.245   6.237  10.141  0.1640  0.0903 -0.0427
15004SOL    HW146453   4.330   6.206  10.111  0.8323  0.6370  1.2098
15004SOL    HW246454   4.264   6.317  10.191 -0.9283 -0.4481  1.3084
15005SOL     OW46455   1.841   5.761   4.965 -0.3169 -0.2997  0.6838
15005SOL    HW146456   1.895   5.782   5.041  0.3987 -1.9905  0.7029
15005SOL    HW246457   1.800   5.677   4.988 -1.6343  0.1268 -0.0177
15006SOL     OW46458   4.155   0.892   1.999 -0.1765 -0.3725  0.1108
15006SOL    HW146459   4.197   0.862   1.918 -1.8921 -0.2085 -0.9106
15006SOL    HW246460   4.104   0.816   2.029 -1.5966  0.3159 -0.4365
15007SOL     OW46461   5.626   3.126   6.152  0.1764 -0.2052  0.0188
15007SOL    HW146462   5.617   3.203   6.095 -0.6997 -1.4895 -1.6722
15007SOL    HW246463   5.702   3.080   6.116  1.5104  0.4599  1.8316
15008SOL     OW46464   5.146   4.866   4.360  0.0222  0.3482 -0.3163
15008SOL    HW146465   5.239   4.886   4.348  0.4377  0.0297  1.9406
15008SOL    HW246466   5.130   4.881   4.453 -1.8308 -1.0510 -0.3523
15009SOL     OW46467   2.477   1.525   7.652 -0.8027 -0.5378 -0.1770
15009SOL    HW146468   2.419   1.539   7.578 -0.3301 -1.9583 -0.8573
15009SOL    HW246469   2.441   1.449   7.698  1.1056 -2.2457 -1.3160
15010SOL     OW46470   5.238   6.214   5.724 -0.2873 -0.1286  0.3099
15010SOL    HW146471   5.240   6.294   5.777  0.3928 -0.3530  0.6446
15010SOL    HW246472   5.164   6.225   5.665 -0.6288  0.4397  0.8383
15011SOL     OW46473   6.749   5.475   0.909  0.3424  0.0823 -0.0329
15011SOL    HW146474   6.702   5.475   0.993 -1.2787 -0.9540 -0.8721
15011SOL    HW246475   6.795   5.558   0.907  0.2862  0.2059  1.8077
15012SOL     OW46476   1.224   4.158   2.296  0.5790 -0.0063 -0.5265
15012SOL    HW146477   1.303   4.110   2.272  0.5214 -0.3043 -0.1258
15012SOL    HW246478   1.170   4.094   2.342  0.0287  0.1508 -0.9364
15013SOL     OW46479   7.210   2.505  10.480 -0.1578 -0.1644  0.1563
15013SOL    HW146480   7.120   2.524  10.505 -0.1235 -0.0314  0.1751
15013SOL    HW246481   7.216   2.409  10.483 -0.4370 -0.1983 -0.3334
15014SOL     OW46482   5.753   4.763   5.317 -0.3131 -0.2308  0.6744
15014SOL    HW146483   5.805   4.799   5.389  1.4338 -0.6546 -0.2976
15014SOL    HW246484   5.808   4.693   5.282  0.3173  1.8103 -2.9067
15015SOL     OW46485   7.025   1.549   0.179 -0.3334  0.0739  0.5544
15015SOL    HW146486   6.942   1.545   0.131 -0.3940 -0.2288  0.6815
15015SOL    HW246487   7.018   1.628   0.233 -0.1870  0.5161 -0.0723
15016SOL     OW46488   2.102   5.878   9.093 -0.8505  0.4981 -0.3205
15016SOL    HW146489   2.084   5.954   9.149 -0.3899  0.8423 -0.6228
15016SOL    HW246490   2.016   5.847   9.066 -1.0539  0.7481  0.0313
15017SOL     OW46491   0.618   5.646  10.970  0.0137 -0.0818  0.0593
15017SOL    HW146492   0.692   5.620  11.024  1.3150  0.4122 -1.4322
15017SOL    HW246493   0.607   5.574  10.907  1.1414  1.1062 -1.5807
15018SOL     OW46494   3.286   0.847   7.432 -0.0663  0.3598  0.3689
15018SOL    HW146495   3.231   0.897   7.371  1.5213  2.7097  0.7383
15018SOL    HW246496   3.297   0.762   7.390 -1.7049  0.7706 -1.0231
15019SOL     OW46497   0.245   1.792   2.724  0.7909  0.2244 -0.3308
15019SOL    HW146498   0.251   1.717   2.783  0.1142  0.1845 -0.3064
15019SOL    HW246499   0.196   1.858   2.773 -1.5830 -0.5246 -1.5280
15020SOL     OW46500   5.998   4.024   3.114 -0.7998 -1.2030 -0.2285
15020SOL    HW146501   5.974   4.041   3.023 -0.5233 -0.1914 -0.1255
15020SOL    HW246502   5.992   4.109   3.157  0.4713 -1.3879  0.3751
15021SOL     OW46503   4.593   4.538   1.189  0.5413  0.2936  0.7558
15021SOL    HW146504   4.519   4.488   1.221  1.0753 -1.2262 -0.2921
15021SOL    HW246505   4.649   4.474   1.146  0.6133  1.9658 -1.8608
15022SOL     OW46506   5.453   0.679   8.510 -0.1030  0.0688 -0.2677
15022SOL    HW146507   5.362   0.696   8.482 -0.1344 -0.9775 -0.8347
15022SOL    HW246508   5.449   0.682   8.606 -0.8162 -0.3313 -0.2755
15023SOL     OW46509   3.868   5.925   7.806  0.6507 -0.6990 -0.2767
15023SOL    HW146510   3.827   5.942   7.891 -1.6886  0.6320 -1.5608
15023SOL    HW246511   3.880   5.830   7.804  1.2741 -0.6958  1.7393
15024SOL     OW46512   0.637   0.779   8.895  0.6044 -0.2234  0.1139
15024SOL    HW146513   0.667   0.732   8.973  1.1809  0.0933  0.0884
15024SOL    HW246514   0.680   0.864   8.900  0.5426 -0.1513 -0.4775
15025SOL     OW46515   5.045   2.075   9.991  0.4337  0.1756 -0.3953
15025SOL    HW146516   4.981   2.147   9.994  0.0286 -0.0414 -2.5485
15025SOL    HW246517   4.991   1.996   9.996  0.8046 -0.0113  0.9436
15026SOL     OW46518   2.977   1.323   6.342  0.2023  0.7256 -0.7376
15026SOL    HW146519   2.887   1.330   6.375  0.1975 -0.5516 -0.4378
15026SOL    HW246520   2.967   1.296   6.251  0.2908 -1.3171 -0.1694
15027SOL     OW46521   4.040   6.813   8.271  0.8657  0.4210  0.7067
15027SOL    HW146522   3.997   6.795   8.354  1.7494  0.6405  1.2163
15027SOL    HW246523   4.059   6.727   8.235  0.7343  0.3273  0.8604
15028SOL     OW46524   7.581   7.099  12.229  0.2746  0.7324  0.1278
15028SOL    HW146525   7.626   7.098  12.314  1.8743  1.3520 -0.6747
15028SOL    HW246526   7.594   7.011  12.194  0.4262  0.7614  0.1115
15029SOL     OW46527   3.849   7.431   1.434 -0.0047 -0.3176 -0.2254
15029SOL    HW146528   3.765   7.391   1.457  0.2186 -0.8231 -0.2579
15029SOL    HW246529   3.893   7.446   1.518  0.4948 -1.4606 -0.2558
15030SOL     OW46530   3.709   1.202  12.078  0.3538 -0.4993 -0.0328
15030SOL    HW146531   3.762   1.218  12.157 -0.3133  0.1583  0.3021
15030SOL    HW246532   3.770   1.165  12.015  1.5019  1.2659 -0.0313
15031SOL     OW46533   2.753   4.266   5.929 -0.1331 -0.2939 -0.3463
15031SOL    HW146534   2.784   4.175   5.927  0.1139 -0.1969 -1.1267
15031SOL    HW246535   2.660   4.260   5.908 -1.0346 -0.7031  3.0966
15032SOL     OW46536   4.549   0.581  12.111  0.4312  0.6039 -0.1248
15032SOL    HW146537   4.505   0.666  12.122 -1.2990  0.1442 -2.5546
15032SOL    HW246538   4.587   0.586  12.023  0.9346 -0.8548 -0.0014
15033SOL     OW46539   4.326   5.632   1.084 -0.2463  0.2436 -0.2374
15033SOL    HW146540   4.416   5.663   1.071 -0.4632  1.1912  0.4762
15033SOL    HW246541   4.336   5.540   1.109  0.5523  0.5110  0.4509
15034SOL     OW46542   3.096   7.900   0.157 -0.3728  0.1724  0.3470
15034SOL    HW146543   3.131   7.881   0.069 -1.6149 -1.0266  0.0801
15034SOL    HW246544   3.109   7.819   0.206 -2.5221 -0.2378  0.3011
15035SOL     OW46545   4.625   5.797   7.079  0.0190 -0.3278  0.0830
15035SOL    HW146546   4.539   5.838   7.075 -0.0614 -0.5506 -0.7417
15035SOL    HW246547   4.637   5.758   6.992  0.3649 -1.4881  0.6266
15036SOL     OW46548   1.085   2.028   6.914 -0.1157  0.3210 -0.5281
15036SOL    HW146549   1.150   2.066   6.973  2.1656 -2.0814 -1.2815
15036SOL    HW246550   1.031   2.102   6.887  2.1430  2.4271  0.3360
15037SOL     OW46551   2.647   4.469  12.191 -0.0947 -0.8396  0.4240
15037SOL    HW146552   2.653   4.431  12.279 -0.1501 -1.3980  0.1904
15037SOL    HW246553   2.669   4.561  12.203  0.1339 -0.9632  0.9877
15038SOL     OW46554   4.397   1.168   0.066 -0.1859 -0.2043 -0.1270
15038SOL    HW146555   4.348   1.250   0.063  0.7227  0.3440 -0.5034
15038SOL    HW246556   4.382   1.128  -0.020  0.4552  0.2311 -0.4491
15039SOL     OW46557   4.457   6.481   1.708 -0.2069 -0.6578 -0.3539
15039SOL    HW146558   4.418   6.567   1.725  0.1268 -0.3309 -1.1494
15039SOL    HW246559   4.405   6.445   1.637 -0.5969 -1.2961  0.2490
15040SOL     OW46560   2.327   5.220   4.998  0.0666 -0.0885  0.0718
15040SOL    HW146561   2.326   5.137   5.047 -2.1165 -0.3896 -0.3676
15040SOL    HW246562   2.379   5.279   5.053  0.9645 -1.4976  0.8137
15041SOL     OW46563   1.428   6.859   5.212  0.1165 -0.0488 -0.3924
15041SOL    HW146564   1.466   6.781   5.251 -1.4857 -0.5383  0.2683
15041SOL    HW246565   1.452   6.854   5.119 -0.0509 -1.3909 -0.3839
15042SOL     OW46566   1.604   5.975  10.160  0.2964 -0.8118 -0.0058
15042SOL    HW146567   1.566   5.987  10.247 -0.1669  1.1675 -0.4315
15042SOL    HW246568   1.560   6.040  10.105  1.6936 -0.9418 -1.3640
15043SOL     OW46569   3.617   2.063  11.429 -0.2988 -0.4809 -0.0674
15043SOL    HW146570   3.651   2.150  11.410  2.9218 -1.5542  0.2525
15043SOL    HW246571   3.541   2.079  11.486 -2.6857  2.2113 -3.5905
15044SOL     OW46572   4.942   4.199  10.402  0.2746 -0.4405 -0.0379
15044SOL    HW146573   4.935   4.256  10.326  0.9075 -1.9485 -1.2930
15044SOL    HW246574   4.965   4.257  10.474  0.7374  0.9066 -1.2257
15045SOL     OW46575   0.500   4.137   6.969 -0.1287  0.2238 -0.0529
15045SOL    HW146576   0.556   4.175   7.037 -0.3835 -1.6293  1.2703
15045SOL    HW246577   0.442   4.208   6.943  1.0723  1.4388  0.4758
15046SOL     OW46578   0.311   1.844   5.915  0.9694 -0.7201  0.4171
15046SOL    HW146579   0.220   1.837   5.886  0.8650  1.5599  0.0366
15046SOL    HW246580   0.308   1.831   6.010 -0.0658  1.2709  0.6965
15047SOL     OW46581   0.196   1.910   3.710 -0.5573  0.3989 -0.4831
15047SOL    HW146582   0.233   1.986   3.754  0.4607  0.3159 -1.1693
15047SOL    HW246583   0.104   1.909   3.738  0.1417  0.0433  2.0308
15048SOL     OW46584   7.619   4.060   1.214 -0.9072  0.4046 -0.2026
15048SOL    HW146585   7.530   4.094   1.209 -1.5849 -0.8054  2.1546
15048SOL    HW246586   7.664   4.118   1.275 -0.3605  0.4107 -0.5990
15049SOL     OW46587   7.025   4.424   9.213 -0.4168 -0.0102  0.4887
15049SOL    HW146588   7.003   4.443   9.122 -0.2961  0.8710  0.6382
15049SOL    HW246589   6.985   4.494   9.264  0.9623  0.4821  0.9503
15050SOL     OW46590   2.719   3.186   9.795 -0.0161 -0.1778 -0.3591
15050SOL    HW146591   2.808   3.153   9.809 -0.5728 -1.8947 -0.6394
15050SOL    HW246592   2.718   3.272   9.837  1.1178 -1.1116  1.7056
15051SOL     OW46593   3.882   1.884   3.094 -0.0561  0.2280  0.4847
15051SOL    HW146594   3.807   1.874   3.036  1.9828 -0.6697 -2.1752
15051SOL    HW246595   3.892   1.799   3.136  0.7026 -0.3221 -0.7842
15052SOL     OW46596   6.982   6.194   4.136 -0.1383 -0.3666  0.5043
15052SOL    HW146597   6.904   6.196   4.190 -0.0590  2.3469  0.6500
15052SOL    HW246598   7.048   6.151   4.190 -1.0354 -1.0921  1.0515
15053SOL     OW46599   5.545   0.794   3.599 -0.6052  0.1598  0.1551
15053SOL    HW146600   5.467   0.741   3.613 -0.8323  0.1215 -1.1143
15053SOL    HW246601   5.527   0.843   3.518 -0.3271  2.0477  1.1708
15054SOL     OW46602   2.819   2.087   2.361 -0.5328  0.1440 -0.1606
15054SOL    HW146603   2.752   2.154   2.373  0.2251  0.9775 -0.4761
15054SOL    HW246604   2.800   2.022   2.428 -1.4865  0.4970 -0.0659
15055SOL     OW46605   6.118   3.383   7.379  0.0249 -0.4211 -0.2015
15055SOL    HW146606   6.209   3.407   7.396 -0.2669  0.2106  0.5432
15055SOL    HW246607   6.076   3.466   7.353 -0.3038 -0.7361 -0.6829
15056SOL     OW46608   3.567   6.644  11.146  0.0680  0.3234  0.1690
15056SOL    HW146609   3.551   6.731  11.110  0.1378  2.4088  4.5117
15056SOL    HW246610   3.662   6.633  11.143  0.1161  0.7261  0.2319
15057SOL     OW46611   5.624   0.360   1.592  0.0682 -0.0523 -0.4899
15057SOL    HW146612   5.588   0.413   1.521 -1.2124 -0.5590 -0.2490
15057SOL    HW246613   5.713   0.338   1.563  0.7068  2.3186 -0.5220
15058SOL     OW46614   0.288   5.841   5.636  0.7357 -0.6250 -0.2003
15058SOL    HW146615   0.334   5.844   5.720 -0.1789 -1.2796  0.3404
15058SOL    HW246616   0.236   5.921   5.634 -0.7166 -1.5022  0.7479
15059SOL     OW46617   7.184   4.580  12.200  0.2870  0.6686 -1.1923
15059SOL    HW146618   7.155   4.494  12.168 -1.1341 -0.0386  1.6961
15059SOL    HW246619   7.270   4.592  12.160  2.3466 -3.8883  1.0930
15060SOL     OW46620   5.991   3.590   5.443 -0.0153  0.3755 -0.4215
15060SOL    HW146621   6.064   3.589   5.382  1.9022 -1.1871  1.7194
15060SOL    HW246622   5.961   3.499   5.445 -0.6971  0.6026  0.2345
15061SOL     OW46623   2.452   7.633   8.684  0.3274  0.4649  0.0085
15061SOL    HW146624   2.428   7.600   8.598  1.6940  0.8145 -0.5320
15061SOL    HW246625   2.386   7.699   8.704 -0.1915  0.1390 -0.6137
15062SOL     OW46626   4.835   3.073   6.225 -0.0484  0.5054 -0.0971
15062SOL    HW146627   4.782   3.015   6.170  0.2572  0.8658 -0.7728
15062SOL    HW246628   4.917   3.083   6.179  1.4077 -1.5466  1.8251
15063SOL     OW46629   2.576   4.859   5.988 -0.3714 -0.5963 -0.2404
15063SOL    HW146630   2.492   4.889   6.021  0.0389 -0.4321  0.6974
15063SOL    HW246631   2.586   4.903   5.904 -0.7163  0.2824  0.1628
15064SOL     OW46632   2.794   3.482   1.245  0.0635  0.0959 -0.2650
15064SOL    HW146633   2.792   3.397   1.201  0.3759 -1.0883  1.9047
15064SOL    HW246634   2.838   3.540   1.183 -0.4665 -1.2038 -1.9369
15065SOL     OW46635   7.023   2.719   7.440 -0.2153 -0.1385  0.2351
15065SOL    HW146636   6.931   2.735   7.419 -0.7852 -1.6614  1.3661
15065SOL    HW246637   7.047   2.791   7.499 -0.5030  0.5638 -0.4897
15066SOL     OW46638   4.225   2.378   6.732 -0.2880  0.2599  0.4276
15066SOL    HW146639   4.153   2.334   6.776  0.0091  0.0513  0.7115
15066SOL    HW246640   4.241   2.324   6.654  1.4887 -1.4415  1.8498
15067SOL     OW46641   5.910   3.080   9.373 -0.2698  0.4003  0.0691
15067SOL    HW146642   5.826   3.112   9.407 -0.9465 -0.8505 -0.3753
15067SOL    HW246643   5.891   2.993   9.338  1.3222 -0.1417  0.4391
15068SOL     OW46644   5.735   4.271  11.972 -0.2353  0.1657 -0.0256
15068SOL    HW146645   5.793   4.319  12.030  0.2582 -0.7035  0.2266
15068SOL    HW246646   5.735   4.182  12.007 -0.0153 -0.3561 -1.2829
15069SOL     OW46647   3.487   4.657   9.495  0.1013  0.2932 -0.4380
15069SOL    HW146648   3.559   4.668   9.558  0.8254 -0.8048 -1.0373
15069SOL    HW246649   3.510   4.715   9.423  0.0916  0.3778 -0.3722
15070SOL     OW46650   0.645   4.740  10.396  0.4246  0.7808  0.2430
15070SOL    HW146651   0.562   4.717  10.352 -0.5309 -1.4232  2.8812
15070SOL    HW246652   0.620   4.807  10.460  0.9171  0.8986  0.3119
15071SOL     OW46653   2.944   4.327   9.577 -0.1423 -0.6239 -0.0851
15071SOL    HW146654   2.986   4.345   9.493  1.1880  2.0149  1.0137
15071SOL    HW246655   2.868   4.385   9.580 -0.5054 -1.1105  0.3138
15072SOL     OW46656   6.422   4.164   0.837  0.0800 -0.2358  0.1665
15072SOL    HW146657   6.334   4.131   0.816  0.9874 -1.9532 -1.2428
15072SOL    HW246658   6.462   4.095   0.890 -0.1562  1.5692  2.9001
15073SOL     OW46659   3.127   0.356   7.678  0.3607 -0.2807  0.0954
15073SOL    HW146660   3.209   0.322   7.641  0.5233 -0.4067  0.5690
15073SOL    HW246661   3.102   0.292   7.744  0.0608 -0.0636  0.1922
15074SOL     OW46662   1.282   4.188   0.609  0.1733 -0.2977  0.1791
15074SOL    HW146663   1.316   4.189   0.520  0.2307 -0.3240  0.2012
15074SOL    HW246664   1.201   4.137   0.603 -0.3165  0.4700 -0.0403
15075SOL     OW46665   6.022   1.432   4.613 -0.0477 -0.0099  0.1131
15075SOL    HW146666   5.961   1.504   4.628  0.9192  0.9195 -0.2408
15075SOL    HW246667   5.999   1.399   4.527 -1.8801 -1.5829  1.1147
15076SOL     OW46668   2.280   5.889   8.224  0.3724 -0.1150  0.4350
15076SOL    HW146669   2.340   5.856   8.290  2.7570  1.2975 -0.8824
15076SOL    HW246670   2.212   5.822   8.216  3.0239 -2.9564  0.3659
15077SOL     OW46671   7.153   4.856  11.543  0.4457 -0.1576 -0.6308
15077SOL    HW146672   7.248   4.862  11.529  0.6379  0.0285  0.6166
15077SOL    HW246673   7.120   4.813  11.465  1.5336 -0.0352 -1.1814
15078SOL     OW46674   5.186   5.763   4.827 -0.7042  0.6276  0.0797
15078SOL    HW146675   5.168   5.755   4.921  0.2867  0.1521  0.2395
15078SOL    HW246676   5.112   5.718   4.786 -0.6946  0.0574  0.6616
15079SOL     OW46677   5.251   4.784   3.601 -0.1611  0.3845 -0.0577
15079SOL    HW146678   5.196   4.858   3.627 -0.3844  0.4455 -0.6834
15079SOL    HW246679   5.251   4.787   3.505 -2.1464 -1.8318 -0.2179
15080SOL     OW46680   2.727   2.374   5.750 -0.3031  0.2262 -0.1808
15080SOL    HW146681   2.705   2.446   5.691 -0.6991  0.6249  0.4395
15080SOL    HW246682   2.651   2.316   5.747 -0.6624  0.6486  0.5288
15081SOL     OW46683   0.943   4.712   9.771 -0.2413  0.7276 -0.1499
15081SOL    HW146684   0.978   4.631   9.735  0.5335  1.7668 -1.9059
15081SOL    HW246685   0.999   4.732   9.846 -0.5044 -0.3800  0.3549
15082SOL     OW46686   0.377   7.388   7.852  0.2322 -0.2816 -0.3303
15082SOL    HW146687   0.333   7.382   7.937  1.5584  0.3603  0.4408
15082SOL    HW246688   0.430   7.309   7.847  0.2019 -0.2890 -0.5383
15083SOL     OW46689   1.012   7.862  12.373 -0.2858  0.3023 -0.1696
15083SOL    HW146690   1.070   7.788  12.357  1.0680  1.2671  0.0791
15083SOL    HW246691   0.970   7.842  12.456 -0.1488 -0.3098 -0.2443
15084SOL     OW46692   5.363   6.474   3.719  0.3099 -0.1389  0.0795
15084SOL    HW146693   5.314   6.443   3.643  1.4665 -0.4754 -0.5585
15084SOL    HW246694   5.297   6.511   3.777 -0.8334 -1.5559 -0.2565
15085SOL     OW46695   2.837   3.833   2.308 -0.1452  0.6758 -0.0633
15085SOL    HW146696   2.868   3.912   2.264  1.6192 -0.0231 -0.1452
15085SOL    HW246697   2.792   3.784   2.240  0.6137  0.6447 -0.5561
15086SOL     OW46698   1.049   3.345   7.178 -0.2997 -0.7649  0.4032
15086SOL    HW146699   1.037   3.309   7.266  0.3086 -0.7327  0.5018
15086SOL    HW246700   1.124   3.404   7.186 -1.3606  0.6570  0.2764
15087SOL     OW46701   6.751   4.213   6.388 -0.3339  0.0789 -0.3083
15087SOL    HW146702   6.762   4.288   6.330 -1.8779  1.7885  1.4763
15087SOL    HW246703   6.837   4.171   6.390  0.6293  1.9296 -1.1828
15088SOL     OW46704   3.320   7.439   9.695  0.0601  0.1802  0.0987
15088SOL    HW146705   3.264   7.361   9.690  1.6683 -1.2690  2.5134
15088SOL    HW246706   3.281   7.492   9.765  1.0286 -0.3516  1.0858
15089SOL     OW46707   5.412   5.557   3.755 -0.4684 -0.0977 -0.3116
15089SOL    HW146708   5.317   5.549   3.758 -0.4512 -0.3105 -0.3394
15089SOL    HW246709   5.443   5.470   3.733 -0.2360 -0.1748  0.3001
15090SOL     OW46710   5.612   6.433   4.530  0.2268 -0.2271 -0.2843
15090SOL    HW146711   5.523   6.405   4.552  0.3995 -1.7865 -1.4234
15090SOL    HW246712   5.605   6.468   4.442  0.6406  0.3095 -0.1147
15091SOL     OW46713   6.545   5.432  10.886  1.0232  0.0223  0.3281
15091SOL    HW146714   6.626   5.433  10.835 -0.0634 -0.2815 -1.4889
15091SOL    HW246715   6.525   5.339  10.898  0.2294  0.0837 -0.4506
15092SOL     OW46716   7.523   7.743   9.509  0.7446  0.3958 -0.1427
15092SOL    HW146717   7.543   7.825   9.556  2.0605  0.1393 -0.2162
15092SOL    HW246718   7.543   7.762   9.418  0.9498  0.0279 -0.1760
15093SOL     OW46719   5.634   6.472   3.623  0.1251  0.2079 -0.0978
15093SOL    HW146720   5.546   6.471   3.661  0.3715  1.6251  0.5718
15093SOL    HW246721   5.620   6.461   3.529 -0.7117 -0.2786  0.0729
15094SOL     OW46722   4.302   6.496  10.222  0.0596 -0.4321 -0.8958
15094SOL    HW146723   4.345   6.501  10.307  1.0219 -2.4428 -1.2054
15094SOL    HW246724   4.370   6.521  10.159 -0.9253  2.0660 -1.0800
15095SOL     OW46725   7.018   2.409   9.694 -0.5785  0.2908 -0.1713
15095SOL    HW146726   7.079   2.348   9.652 -1.9987 -1.7713  0.5973
15095SOL    HW246727   6.997   2.368   9.778 -0.7809  2.4199  0.8839
15096SOL     OW46728   7.351   7.325   1.391 -0.1168 -0.0963 -0.4029
15096SOL    HW146729   7.307   7.245   1.361  0.2196 -0.9836  1.3340
15096SOL    HW246730   7.364   7.311   1.485 -0.0188  2.0033 -0.0565
15097SOL     OW46731   1.044   4.623   1.008  0.1157 -0.1314  0.4472
15097SOL    HW146732   1.116   4.585   0.958  1.0290  3.4721 -1.3317
15097SOL    HW246733   0.988   4.663   0.942 -1.5894  0.2310  2.0380
15098SOL     OW46734   1.726   4.915  10.893  0.2977 -0.2127  0.2448
15098SOL    HW146735   1.731   4.935  10.986  0.6216 -0.5933  0.3115
15098SOL    HW246736   1.638   4.943  10.867  0.4009  0.3980  0.5406
15099SOL     OW46737   3.823   1.627   9.363  0.0395 -0.0417 -0.2918
15099SOL    HW146738   3.897   1.653   9.418  1.0899  0.9717 -2.1008
15099SOL    HW246739   3.815   1.532   9.376 -0.2053  0.2478  2.0757
15100SOL     OW46740   0.195   5.734   3.372  0.2441 -0.0017  0.6154
15100SOL    HW146741   0.116   5.752   3.424 -0.2041  1.2730 -0.4472
15100SOL    HW246742   0.204   5.639   3.374 -1.2149 -0.1586  0.9176
15101SOL     OW46743   1.779   2.243   3.557  0.0165 -0.1509 -0.3558
15101SOL    HW146744   1.807   2.195   3.635 -2.1757 -1.4598 -0.2826
15101SOL    HW246745   1.859   2.254   3.506  1.0639 -1.5425  0.8911
15102SOL     OW46746   2.294   6.539   6.056  0.0854 -0.3274 -0.8405
15102SOL    HW146747   2.248   6.471   6.008 -0.4378  0.0252 -0.8491
15102SOL    HW246748   2.355   6.492   6.113 -0.6365 -0.8212 -0.4666
15103SOL     OW46749   0.932   0.054   1.258 -0.2619 -0.1693  0.8177
15103SOL    HW146750   0.854   0.007   1.289 -0.9975 -0.4416 -1.2931
15103SOL    HW246751   0.976  -0.008   1.201  0.2513  0.7789  0.1583
15104SOL     OW46752   0.782   5.856   2.930 -0.0224  0.2561 -0.5544
15104SOL    HW146753   0.814   5.810   3.008  1.7151  0.2073 -1.2461
15104SOL    HW246754   0.802   5.948   2.948 -0.6852  0.3908 -0.4739
15105SOL     OW46755   1.419   1.927  11.854  0.1227 -0.4442  0.4295
15105SOL    HW146756   1.402   1.836  11.876  0.1519 -0.4336  0.4959
15105SOL    HW246757   1.444   1.925  11.761 -0.1929 -0.4646  0.3435
15106SOL     OW46758   6.963   2.911  10.944  0.2668  0.4520 -0.0279
15106SOL    HW146759   6.888   2.911  11.004  0.3298  0.1821  0.0508
15106SOL    HW246760   6.923   2.905  10.857  0.2455 -1.3714  0.0810
15107SOL     OW46761   3.598   4.098  10.866 -0.0463 -0.0056 -0.3426
15107SOL    HW146762   3.586   4.057  10.952 -0.6824 -1.9869 -1.3070
15107SOL    HW246763   3.514   4.140  10.847  0.5086  1.5902  0.5137
15108SOL     OW46764   3.571   7.494  10.974  0.0897  0.6921  0.3208
15108SOL    HW146765   3.530   7.410  10.951 -0.1675  0.6646  0.8634
15108SOL    HW246766   3.533   7.516  11.059  0.8370  0.9085  0.6059
15109SOL     OW46767   2.227   7.786   8.742 -0.5106  0.2132  0.1303
15109SOL    HW146768   2.152   7.729   8.723 -0.3193  0.5098 -1.7554
15109SOL    HW246769   2.190   7.874   8.748 -0.4147  0.2695 -0.0898
15110SOL     OW46770   2.716   0.509   2.184  0.0683  0.5611 -0.7309
15110SOL    HW146771   2.734   0.570   2.255 -1.3527 -0.5769  0.6851
15110SOL    HW246772   2.650   0.554   2.131 -1.3860  0.1241  0.6104
15111SOL     OW46773   3.486   1.373   5.121  0.1666 -0.2201 -0.3109
15111SOL    HW146774   3.570   1.328   5.118  0.3920  0.1582  0.2391
15111SOL    HW246775   3.421   1.303   5.129  0.4589 -0.4871 -0.2757
15112SOL     OW46776   0.997   0.734  10.189 -0.2503 -0.3969 -0.4468
15112SOL    HW146777   0.943   0.691  10.123 -0.7597  1.2942 -1.1900
15112SOL    HW246778   1.067   0.776  10.139  0.1814 -0.2786  0.2397
15113SOL     OW46779   2.950   2.877   1.778  0.3270 -0.4116 -0.2459
15113SOL    HW146780   2.993   2.825   1.710  0.4088 -3.3896  1.8920
15113SOL    HW246781   2.859   2.884   1.750  1.0112  1.5052 -2.2892
15114SOL     OW46782   7.437   0.290  10.034  0.0092 -0.0083  0.1026
15114SOL    HW146783   7.382   0.289   9.955 -0.6237  1.0860  0.5121
15114SOL    HW246784   7.524   0.315  10.002 -0.2807  0.5967 -0.2351
15115SOL     OW46785   0.032   6.136   2.009 -0.1892  0.3995  0.0734
15115SOL    HW146786   0.072   6.098   2.087  0.6788  2.0637  0.5053
15115SOL    HW246787   0.090   6.110   1.938  1.1668  1.9244  0.5512
15116SOL     OW46788   7.308   3.945   1.245  0.2994  0.4729 -0.2085
15116SOL    HW146789   7.216   3.956   1.219  0.2298  0.1984 -0.0837
15116SOL    HW246790   7.312   3.984   1.333 -0.0331 -0.7965  0.3886
15117SOL     OW46791   7.347   4.046  12.158 -0.2007  0.5472 -0.0302
15117SOL    HW146792   7.431   4.010  12.187  0.1149  0.6766 -0.7492
15117SOL    HW246793   7.362   4.141  12.153 -0.2839  0.5398 -0.4766
15118SOL     OW46794   2.900   5.362   8.110 -0.1427 -0.1271  0.2226
15118SOL    HW146795   2.961   5.303   8.065  0.5904  0.0711  0.9241
15118SOL    HW246796   2.897   5.329   8.200  0.8727  1.3310  0.8202
15119SOL     OW46797   6.005   0.714   6.119 -0.1395 -0.3035  0.1864
15119SOL    HW146798   6.033   0.624   6.139 -3.0733 -1.1332  1.1665
15119SOL    HW246799   6.046   0.767   6.187  0.8878 -1.0379  0.1658
15120SOL     OW46800   3.084   2.193   9.926 -0.2326 -0.5844 -0.0597
15120SOL    HW146801   3.139   2.229   9.856 -0.4398  1.3135  0.6858
15120SOL    HW246802   3.002   2.242   9.919 -0.6733 -1.1802  0.7920
15121SOL     OW46803   2.587   0.952   5.818  0.1552  0.1722 -0.2166
15121SOL    HW146804   2.559   0.861   5.813 -1.4831  0.4638  1.7924
15121SOL    HW246805   2.512   1.002   5.786  0.7579  0.8465 -0.6120
15122SOL     OW46806   7.342   1.293   6.474 -0.1374  0.6324 -0.1244
15122SOL    HW146807   7.270   1.349   6.504 -1.1820 -1.0445  0.6845
15122SOL    HW246808   7.306   1.248   6.397  0.9049  1.4843 -1.1466
15123SOL     OW46809   7.539   1.906   0.086 -0.8853 -0.2502  0.1976
15123SOL    HW146810   7.602   1.834   0.089 -1.1786 -0.4674  2.0567
15123SOL    HW246811   7.594   1.984   0.075 -0.3046 -0.4728  1.3919
15124SOL     OW46812   5.607   2.809   7.766  0.0955 -0.5059  0.0939
15124SOL    HW146813   5.658   2.875   7.813 -0.6261 -0.8713  1.4492
15124SOL    HW246814   5.522   2.850   7.753 -0.2787 -1.0574  0.7313
15125SOL     OW46815   7.568   7.827  11.156 -0.1289  0.0967 -0.3220
15125SOL    HW146816   7.519   7.869  11.227 -0.5027 -1.4750  0.4002
15125SOL    HW246817   7.578   7.895  11.090 -2.5864  0.7291 -0.1415
15126SOL     OW46818   5.006   6.315   3.901  0.5230 -0.1387 -0.1651
15126SOL    HW146819   5.100   6.304   3.889  0.4849 -0.3355 -0.2765
15126SOL    HW246820   4.979   6.369   3.826  1.1121  2.8447  1.5931
15127SOL     OW46821   0.298   4.238   8.129  0.2268  0.6388  0.1198
15127SOL    HW146822   0.333   4.324   8.151 -0.0865  0.7963  0.0164
15127SOL    HW246823   0.364   4.199   8.071  0.6335  0.5792  0.6211
15128SOL     OW46824   4.657   5.502   5.646 -0.1739 -0.0566  0.1319
15128SOL    HW146825   4.667   5.427   5.586 -1.9512 -1.1460  1.1084
15128SOL    HW246826   4.571   5.538   5.625 -0.0021  0.7283  0.7452
15129SOL     OW46827   7.727   2.222   6.453 -0.0629 -0.6942 -0.1835
15129SOL    HW146828   7.768   2.306   6.434 -1.0361 -0.1468  0.0653
15129SOL    HW246829   7.800   2.162   6.469  0.6549 -0.0408 -0.9266
15130SOL     OW46830   3.987   0.404   8.339  0.2346  0.0041  0.1068
15130SOL    HW146831   3.902   0.432   8.305  0.9226  1.1269 -0.7273
15130SOL    HW246832   3.999   0.316   8.304 -0.3083  0.0796 -0.2801
15131SOL     OW46833   5.322   3.997  10.948 -0.2053  0.0453  0.3683
15131SOL    HW146834   5.288   4.084  10.926  0.0498 -0.4611 -2.4625
15131SOL    HW246835   5.381   4.012  11.022 -0.1313  2.2890 -0.0585
15132SOL     OW46836   7.534   2.640   9.703 -0.7829  0.6176 -0.2735
15132SOL    HW146837   7.476   2.578   9.658 -2.1243  1.5368  0.1071
15132SOL    HW246838   7.548   2.710   9.639 -1.2626  1.0767  0.1110
15133SOL     OW46839   4.957   7.549   3.291  0.3126 -0.3699  0.2243
15133SOL    HW146840   5.031   7.533   3.350 -0.0582 -0.9283  0.5472
15133SOL    HW246841   4.896   7.478   3.310  0.3417 -0.7600 -1.0966
15134SOL     OW46842   3.543   7.217   3.032 -0.5962  0.1427 -0.5430
15134SOL    HW146843   3.494   7.144   2.993  0.8468 -0.6149 -1.0117
15134SOL    HW246844   3.560   7.275   2.958 -0.3378  0.1343 -0.4899
15135SOL     OW46845   3.287   0.549   2.267 -0.2421 -0.1508  0.6862
15135SOL    HW146846   3.227   0.596   2.325  0.0868  0.3805  0.5985
15135SOL    HW246847   3.314   0.614   2.203 -0.5403 -0.7174 -0.0239
15136SOL     OW46848   4.335   2.060   3.549 -0.5868  0.5096  0.2679
15136SOL    HW146849   4.307   1.978   3.508  0.1189  0.4253 -0.0626
15136SOL    HW246850   4.366   2.034   3.636 -0.8206  0.4973  0.3482
15137SOL     OW46851   2.944   2.423   8.463 -0.3503  0.6196  0.6840
15137SOL    HW146852   3.001   2.430   8.539 -0.1657  0.9403  0.5176
15137SOL    HW246853   2.855   2.425   8.499 -0.3245 -2.4617  1.2127
15138SOL     OW46854   7.157   6.628  12.036 -0.3262 -0.0604  0.2559
15138SOL    HW146855   7.091   6.578  11.988  1.1504 -1.2995 -0.6130
15138SOL    HW246856   7.203   6.562  12.088  1.1101  0.5044 -0.2375
15139SOL     OW46857   0.070   0.250   8.257 -0.5002  0.0867  0.0300
15139SOL    HW146858   0.120   0.268   8.337 -1.9561  0.7160  0.8400
15139SOL    HW246859  -0.019   0.279   8.278 -0.9999 -0.1250 -1.6889
15140SOL     OW46860   3.313   3.574   8.801 -0.3774  0.3477  0.2448
15140SOL    HW146861   3.363   3.558   8.721  0.5629 -0.2086  0.9204
15140SOL    HW246862   3.374   3.623   8.857 -0.2386 -1.1106  1.4325
15141SOL     OW46863   7.323   2.167   0.420 -0.5919 -0.2340  0.6115
15141SOL    HW146864   7.365   2.084   0.395 -0.9704 -0.9727  2.2458
15141SOL    HW246865   7.303   2.210   0.338  1.4777 -0.8098 -0.2701
15142SOL     OW46866   0.930   1.876   9.776  0.1884  1.0249 -0.0854
15142SOL    HW146867   0.848   1.865   9.824  0.4078 -2.3685 -0.2269
15142SOL    HW246868   0.998   1.878   9.844  0.2196 -0.1322 -0.0521
15143SOL     OW46869   5.849   1.691   7.179  0.2547  0.7110 -0.4462
15143SOL    HW146870   5.865   1.780   7.148  1.1785  0.8206  0.2805
15143SOL    HW246871   5.787   1.654   7.117  0.9110  1.4141 -1.5526
15144SOL     OW46872   3.201   0.564   3.706 -0.1086 -0.1979  0.2777
15144SOL    HW146873   3.276   0.538   3.759 -0.0211 -1.9404 -0.6142
15144SOL    HW246874   3.219   0.527   3.620 -1.6325 -0.0045 -0.1575
15145SOL     OW46875   2.944   1.777   3.357 -0.6373 -0.0997  0.0217
15145SOL    HW146876   3.029   1.767   3.314 -0.3678  1.5479  0.1049
15145SOL    HW246877   2.923   1.689   3.389  0.7859 -0.6454 -0.4528
15146SOL     OW46878   4.567   7.112   3.822 -0.1556 -0.1178 -0.1981
15146SOL    HW146879   4.552   7.200   3.789  1.2480  0.1022 -0.3334
15146SOL    HW246880   4.629   7.124   3.894 -2.5045 -0.6664  2.0785
15147SOL     OW46881   2.023   4.687  12.250  0.5124 -0.3139 -0.5726
15147SOL    HW146882   1.959   4.681  12.321 -0.4115  2.2427 -1.0953
15147SOL    HW246883   1.979   4.649  12.174  1.8563 -3.9700  0.2968
15148SOL     OW46884   1.173   5.364   9.489  0.1127  0.1709  0.1975
15148SOL    HW146885   1.148   5.433   9.550 -0.2949  1.5775 -1.4699
15148SOL    HW246886   1.267   5.352   9.502 -0.0024  0.2992  1.2099
15149SOL     OW46887   7.936   2.460   5.431  0.2073  0.8426 -0.4769
15149SOL    HW146888   8.021   2.446   5.475 -0.2723 -1.8365 -0.1915
15149SOL    HW246889   7.871   2.444   5.500 -0.5162  0.5520 -1.2130
15150SOL     OW46890   0.491   0.149   5.152  0.2778 -0.3950  0.1729
15150SOL    HW146891   0.446   0.224   5.113  0.7780 -0.5769 -0.7957
15150SOL    HW246892   0.433   0.120   5.223  0.6636  1.6557  1.4068
15151SOL     OW46893   6.844   6.479   4.771 -0.4471  0.2603 -0.2352
15151SOL    HW146894   6.905   6.482   4.845 -1.2886  0.5143  0.4704
15151SOL    HW246895   6.850   6.566   4.732 -0.7445  0.4713  0.1724
15152SOL     OW46896   5.158   4.765   1.715  0.1552  0.1781 -0.1539
15152SOL    HW146897   5.065   4.740   1.715  0.0639  0.5150 -0.1117
15152SOL    HW246898   5.158   4.857   1.740  0.3352  0.7937 -2.2392
15153SOL     OW46899   5.580   0.356   2.714  0.4210  0.2877 -0.1987
15153SOL    HW146900   5.559   0.306   2.635 -0.3789  0.2021  0.0551
15153SOL    HW246901   5.635   0.297   2.765  0.7173  0.2391 -0.5661
15154SOL     OW46902   3.190   2.265   0.703 -0.4802  0.3512 -0.0303
15154SOL    HW146903   3.205   2.358   0.717  0.5818  0.0890  0.6890
15154SOL    HW246904   3.272   2.223   0.729 -1.3791 -0.8936  0.9400
15155SOL     OW46905   2.815   0.276   8.573  0.1543  0.0424 -0.6899
15155SOL    HW146906   2.802   0.329   8.651  1.0001 -0.4709 -0.1728
15155SOL    HW246907   2.753   0.310   8.508 -1.1138 -0.0332  0.4518
15156SOL     OW46908   0.553   0.353   6.964  1.1066 -0.8352  0.2314
15156SOL    HW146909   0.626   0.334   6.905  0.6665  0.2773 -0.7173
15156SOL    HW246910   0.530   0.444   6.944 -2.0757 -1.8224 -1.2309
15157SOL     OW46911   6.044   1.408   6.763 -0.1944 -0.4826 -0.1090
15157SOL    HW146912   6.081   1.423   6.850 -0.2119 -0.5087 -0.0967
15157SOL    HW246913   5.952   1.388   6.779 -0.2844 -0.1148 -0.1602
15158SOL     OW46914   4.031   7.775  11.161 -0.0611 -0.6234  0.3401
15158SOL    HW146915   4.030   7.870  11.175 -0.6023 -0.3505 -1.3183
15158SOL    HW246916   3.974   7.741  11.230 -1.7882  0.5212 -0.4497
15159SOL     OW46917   4.331   1.223   4.440  0.8472  0.2532  0.4307
15159SOL    HW146918   4.377   1.257   4.516 -0.4467  0.6065  1.0756
15159SOL    HW246919   4.293   1.140   4.470  0.3591  0.3773  0.1631
15160SOL     OW46920   7.147   6.412   0.455  0.0962  0.2408  0.8513
15160SOL    HW146921   7.121   6.419   0.363  1.6801 -0.6145  0.3069
15160SOL    HW246922   7.211   6.340   0.457  0.8444  0.9027  2.4552
15161SOL     OW46923   5.500   4.399   0.072 -0.3696  0.1591 -0.4979
15161SOL    HW146924   5.576   4.343   0.054 -0.8105 -0.6041 -0.0563
15161SOL    HW246925   5.427   4.354   0.029 -1.2726 -1.1872  2.2299
15162SOL     OW46926   7.366   7.550   0.932  0.0718  0.1487  0.5898
15162SOL    HW146927   7.380   7.460   0.959 -2.5476 -1.0021 -1.4388
15162SOL    HW246928   7.338   7.544   0.841 -1.6536  2.8394  0.8159
15163SOL     OW46929   6.894   4.451   2.829  0.5496 -0.3981 -0.1698
15163SOL    HW146930   6.944   4.438   2.749 -0.6420  2.1522 -1.4573
15163SOL    HW246931   6.958   4.480   2.894  1.0603  1.2706 -1.3441
15164SOL     OW46932   5.349   0.773   2.156  0.1597 -0.1386 -0.2949
15164SOL    HW146933   5.270   0.734   2.120  0.4637 -0.7516 -0.3170
15164SOL    HW246934   5.379   0.710   2.222  0.0935  0.5507  0.4080
15165SOL     OW46935   7.929   3.440   8.613 -0.4622  0.0393 -0.0081
15165SOL    HW146936   7.914   3.361   8.665 -0.8426  0.0993 -0.0259
15165SOL    HW246937   7.913   3.512   8.675  0.2414  0.1040  0.1096
15166SOL     OW46938   5.861   7.427  10.893  0.0429  0.6259  0.2955
15166SOL    HW146939   5.804   7.393  10.961 -0.8624 -1.2408 -1.2954
15166SOL    HW246940   5.949   7.401  10.921 -0.4131 -1.0207  0.3037
15167SOL     OW46941   6.065   2.768   1.550 -0.5479 -0.3939  0.9285
15167SOL    HW146942   6.072   2.847   1.604  1.2567 -0.1009  0.3065
15167SOL    HW246943   6.151   2.757   1.511 -1.1864 -1.8604 -0.1680
15168SOL     OW46944   2.729   4.219   0.963  0.1354  0.2371 -0.6508
15168SOL    HW146945   2.663   4.228   0.894 -0.5093  2.4130  0.1716
15168SOL    HW246946   2.772   4.304   0.967  0.4243  0.0436  1.3560
15169SOL     OW46947   3.505   7.217   5.400  0.2671  0.1875  0.3796
15169SOL    HW146948   3.502   7.135   5.351 -0.0674  0.6452 -0.3931
15169SOL    HW246949   3.587   7.259   5.372  1.4574 -0.7365  2.2435
15170SOL     OW46950   2.301   4.021   7.303 -0.0363  0.4369 -0.0286
15170SOL    HW146951   2.213   4.046   7.275  0.4847 -0.4867 -2.7145
15170SOL    HW246952   2.359   4.084   7.261  0.7473 -0.4568 -0.3113
15171SOL     OW46953   6.888   5.722   5.438 -0.4932 -0.1861  0.2490
15171SOL    HW146954   6.895   5.631   5.411  0.0312  0.7260 -3.1189
15171SOL    HW246955   6.802   5.750   5.406 -0.1449  0.8004  0.1358
15172SOL     OW46956   3.947   2.491  11.007 -0.5399 -0.8615 -0.2820
15172SOL    HW146957   3.956   2.461  11.097  0.9585  1.7129  0.5214
15172SOL    HW246958   3.852   2.500  10.994 -0.8610 -2.7213  0.4565
15173SOL     OW46959   7.926   2.020   9.162 -0.1721  0.2499  0.5661
15173SOL    HW146960   7.935   1.960   9.088  2.3779 -1.6819  2.2841
15173SOL    HW246961   7.957   2.104   9.129 -0.2485 -0.2611 -0.8669
15174SOL     OW46962   7.269   5.079   8.857  0.0935  0.4699 -0.2207
15174SOL    HW146963   7.244   5.025   8.932  1.6842 -1.1297 -0.7611
15174SOL    HW246964   7.342   5.033   8.818  1.2848  2.8538 -0.9989
15175SOL     OW46965   1.180   6.244   7.857 -0.5624  0.2651  0.1282
15175SOL    HW146966   1.179   6.164   7.911 -1.5319 -0.0145 -0.2824
15175SOL    HW246967   1.119   6.226   7.786 -1.1883  1.5680  0.3070
15176SOL     OW46968   7.318   0.661   1.649 -0.3599 -0.1702  0.4229
15176SOL    HW146969   7.270   0.634   1.727  1.1195 -0.8568  1.1194
15176SOL    HW246970   7.318   0.756   1.652  0.0366 -0.1968  1.4921
15177SOL     OW46971   4.599   4.797   6.179  0.1144  0.1584  0.2962
15177SOL    HW146972   4.671   4.838   6.130 -0.5395 -0.0734 -0.8788
15177SOL    HW246973   4.639   4.721   6.221  0.5305 -0.0936 -0.5251
15178SOL     OW46974   1.052   5.882  10.277  0.8299 -0.1188 -0.1316
15178SOL    HW146975   1.081   5.886  10.368  1.5437 -1.9025 -0.2336
15178SOL    HW246976   0.959   5.860  10.284  0.8149  0.0312  0.1801
15179SOL     OW46977   2.504   0.343  10.080 -0.0519  0.3008  0.2797
15179SOL    HW146978   2.426   0.291  10.060  0.4353 -0.4349  0.2921
15179SOL    HW246979   2.499   0.357  10.175  0.1198 -0.2188  0.3666
15180SOL     OW46980   1.776   4.957   6.895 -0.1236 -0.5468  0.2742
15180SOL    HW146981   1.685   4.983   6.879  0.2143  0.8634  0.4515
15180SOL    HW246982   1.787   4.875   6.847 -1.2840 -0.3708 -0.3270
15181SOL     OW46983   5.875   3.485   2.595 -0.2760 -0.1500 -0.7509
15181SOL    HW146984   5.887   3.405   2.543  0.4891 -0.3718 -0.2557
15181SOL    HW246985   5.962   3.526   2.595 -0.2037 -0.2814  0.5434
15182SOL     OW46986   3.364   0.614   4.520  0.1993  0.2624  0.2184
15182SOL    HW146987   3.296   0.635   4.584 -0.9586  2.1306 -1.4921
15182SOL    HW246988   3.327   0.543   4.468 -0.3832  1.0404 -0.4828
15183SOL     OW46989   3.728   2.711   7.125 -0.3928  0.1193  0.1511
15183SOL    HW146990   3.793   2.670   7.068 -1.3125 -0.6941 -0.3546
15183SOL    HW246991   3.733   2.805   7.104  1.7719  0.3137  1.3564
15184SOL     OW46992   1.934   3.595   6.092  0.3049  0.2915 -0.2908
15184SOL    HW146993   1.973   3.577   6.006  0.4428  0.9724 -0.3707
15184SOL    HW246994   1.989   3.664   6.130  0.5085 -0.3035  0.5312
15185SOL     OW46995   5.091   5.290   3.146  0.6424 -0.1273  0.2106
15185SOL    HW146996   5.086   5.197   3.124 -1.0684  0.1415 -0.7055
15185SOL    HW246997   5.185   5.310   3.145  1.0984 -1.9908  1.2031
15186SOL     OW46998   6.411   6.383   2.627  0.3101 -0.1070  0.2943
15186SOL    HW146999   6.415   6.445   2.699  0.3020  0.1314  0.0916
15186SOL    HW247000   6.480   6.411   2.567 -0.4074  0.3858 -0.3310
15187SOL     OW47001   1.112   0.675   5.270 -0.1631 -0.3194 -0.6132
15187SOL    HW147002   1.198   0.717   5.269 -0.4397  0.2727 -0.4420
15187SOL    HW247003   1.053   0.742   5.235 -0.7505 -0.2582  0.4566
15188SOL     OW47004   4.192   1.288   6.131  0.3414  0.2382 -0.3090
15188SOL    HW147005   4.281   1.253   6.135  0.5539  0.8048  0.1525
15188SOL    HW247006   4.160   1.264   6.044  1.0240  0.2149 -0.5581
15189SOL     OW47007   7.656   7.120   7.890  0.6672  0.5549 -0.2987
15189SOL    HW147008   7.711   7.131   7.967 -0.5638  0.2805  0.6394
15189SOL    HW247009   7.639   7.026   7.885 -0.3663  0.7222 -0.1062
15190SOL     OW47010   6.384   3.523   2.165 -0.3518  0.0126 -0.2853
15190SOL    HW147011   6.443   3.450   2.183  1.6559  1.4200 -0.8113
15190SOL    HW247012   6.436   3.601   2.185 -2.0346  1.3375 -0.8369
15191SOL     OW47013   2.516   3.149  10.881 -0.0472 -0.5909  0.2446
15191SOL    HW147014   2.547   3.136  10.791  0.2126 -0.9011  0.3764
15191SOL    HW247015   2.595   3.162  10.932 -0.1762 -0.7088  0.4772
15192SOL     OW47016   3.323   1.466   7.860  0.1951 -0.6667 -0.2572
15192SOL    HW147017   3.372   1.453   7.779  0.7546  1.4529 -0.3221
15192SOL    HW247018   3.329   1.383   7.906  0.2010 -1.7896 -2.1945
15193SOL     OW47019   7.729   1.766   4.470 -0.1007 -0.3932 -0.0479
15193SOL    HW147020   7.774   1.746   4.552  0.4649  0.2183 -0.2089
15193SOL    HW247021   7.681   1.685   4.450  0.4215 -0.8382  0.4471
15194SOL     OW47022   1.970   1.728   5.265 -0.3551 -0.3275  0.4616
15194SOL    HW147023   1.989   1.821   5.248 -1.4708  0.3325  2.4796
15194SOL    HW247024   2.055   1.685   5.258  0.2899  0.9531  0.0936
15195SOL     OW47025   0.066   3.793   3.994  0.2563 -0.1132 -0.2402
15195SOL    HW147026   0.029   3.823   4.078  1.2451  0.3558  0.0461
15195SOL    HW247027   0.119   3.716   4.017 -0.1795 -0.5237 -0.5810
15196SOL     OW47028   5.097   2.501   1.607 -0.4491  0.2816 -0.1255
15196SOL    HW147029   5.159   2.561   1.648  0.1941 -0.2685 -0.2803
15196SOL    HW247030   5.040   2.558   1.555  1.1662  0.6442 -1.5824
15197SOL     OW47031   0.577   2.700   0.967 -0.6542  0.5858  0.2760
15197SOL    HW147032   0.609   2.664   1.050 -1.3605 -0.1605  0.2402
15197SOL    HW247033   0.520   2.772   0.992  0.3685  1.3855  0.3684
15198SOL     OW47034   2.067   1.376  10.683 -0.0782 -0.1616  0.7876
15198SOL    HW147035   2.024   1.406  10.602  2.1485  1.0880 -0.0202
15198SOL    HW247036   2.005   1.399  10.752 -2.6893 -2.5495 -0.5766
15199SOL     OW47037   1.301   2.024   9.040  0.0777 -0.7371  0.4425
15199SOL    HW147038   1.395   2.022   9.024  0.0529 -0.6499  0.2837
15199SOL    HW247039   1.285   2.112   9.075  0.2163 -1.1060  1.4845
15200SOL     OW47040   2.928   6.006   3.936 -0.2810 -0.4284  0.3785
15200SOL    HW147041   2.877   5.931   3.906 -2.1398  0.6305  0.7428
15200SOL    HW247042   3.018   5.988   3.907 -0.4922 -3.1354  1.1308
15201SOL     OW47043   6.406   6.814   0.110  0.1075 -0.2600 -0.6980
15201SOL    HW147044   6.485   6.771   0.142  0.0283  0.2808  0.2609
15201SOL    HW247045   6.392   6.887   0.171 -1.1010 -0.3160 -0.8907
15202SOL     OW47046   5.486   1.894  11.888 -0.7337 -0.6661 -1.2936
15202SOL    HW147047   5.525   1.826  11.834  1.9917 -0.9331  0.7580
15202SOL    HW247048   5.528   1.975  11.858 -0.8410 -0.5094 -1.0231
15203SOL     OW47049   2.779   1.629   2.309  0.1018 -0.2517 -0.2634
15203SOL    HW147050   2.759   1.666   2.223  0.0749  0.4637  0.0391
15203SOL    HW247051   2.844   1.561   2.292 -2.0433 -2.2132 -1.2117
15204SOL     OW47052   6.395   7.071   2.189 -0.0215  0.1771  0.1543
15204SOL    HW147053   6.428   7.086   2.277 -0.9613  1.2020  0.3494
15204SOL    HW247054   6.352   6.985   2.194  0.5039 -0.0666  0.5114
15205SOL     OW47055   1.416   4.217   9.450  0.3198 -0.0008  0.0134
15205SOL    HW147056   1.418   4.301   9.497 -0.9524 -0.3105  0.6601
15205SOL    HW247057   1.323   4.194   9.447  0.3363  0.0186 -2.7262
15206SOL     OW47058   7.368   3.439   2.973  0.2890 -0.6304 -0.1877
15206SOL    HW147059   7.327   3.515   2.931  0.2574  0.2451  1.3621
15206SOL    HW247060   7.461   3.449   2.956  0.1440 -1.2378 -1.5048
15207SOL     OW47061   5.235   0.760   4.137 -0.3274  0.1744 -0.3498
15207SOL    HW147062   5.225   0.676   4.091  2.4308 -1.1558  1.2459
15207SOL    HW247063   5.182   0.751   4.216  0.7407 -0.5030  0.3072
15208SOL     OW47064   1.730   4.674   6.859 -0.0003 -0.2836 -0.4632
15208SOL    HW147065   1.808   4.625   6.833 -0.7292 -1.2735 -0.8140
15208SOL    HW247066   1.683   4.616   6.919  0.3870  0.9950  1.1622
15209SOL     OW47067   4.555   2.202   5.116  0.7149 -0.4062 -0.6547
15209SOL    HW147068   4.618   2.142   5.076  0.2176 -0.9323 -0.6565
15209SOL    HW247069   4.470   2.167   5.092  0.4157 -0.2253  0.1298
15210SOL     OW47070   0.279   2.120   2.606  0.1502  0.5916 -0.2716
15210SOL    HW147071   0.367   2.126   2.569  0.3212 -0.1127  0.0018
15210SOL    HW247072   0.288   2.059   2.679 -0.5135  0.7191 -0.0777
15211SOL     OW47073   2.604   7.583   7.678 -0.1510 -0.3513  0.6121
15211SOL    HW147074   2.530   7.532   7.710 -0.3279 -1.5718 -1.5605
15211SOL    HW247075   2.646   7.527   7.613  0.4956  1.7011 -0.8586
15212SOL     OW47076   0.963   5.457   7.391 -0.1899  0.6705  0.1595
15212SOL    HW147077   0.977   5.519   7.462  0.7201  0.3468  0.2730
15212SOL    HW247078   1.029   5.389   7.404 -0.9488 -0.1485 -0.1639
15213SOL     OW47079   4.496   7.014   4.135 -0.3228  0.5529 -0.5884
15213SOL    HW147080   4.538   7.025   4.220  0.2112  1.0985 -0.9176
15213SOL    HW247081   4.500   7.100   4.094  0.5084  0.0401 -1.6521
15214SOL     OW47082   1.061   3.891  12.130  0.5354  0.0874 -0.2555
15214SOL    HW147083   1.139   3.871  12.183 -0.4043 -1.3838  0.6349
15214SOL    HW247084   1.004   3.939  12.190 -1.6619 -3.7956  1.1455
15215SOL     OW47085   6.309   3.481   0.969  0.6095  0.2272  0.2273
15215SOL    HW147086   6.402   3.486   0.949  0.6725  2.5483  0.8086
15215SOL    HW247087   6.265   3.506   0.887  0.4173 -1.5037 -0.2463
15216SOL     OW47088   3.987   0.750   0.505  0.4724  0.0277 -0.4726
15216SOL    HW147089   4.007   0.814   0.574  1.8743 -1.1997  0.3101
15216SOL    HW247090   3.989   0.665   0.549  1.9857 -0.8473 -2.0996
15217SOL     OW47091   1.706   7.895   0.019 -0.1161 -0.0102  0.4397
15217SOL    HW147092   1.688   7.974   0.070 -1.5725 -0.7156  1.0578
15217SOL    HW247093   1.621   7.852   0.008  0.7292 -1.8583  0.7209
15218SOL     OW47094   6.876   2.349   6.542 -0.2804  0.0905 -0.0147
15218SOL    HW147095   6.918   2.294   6.476  0.9074  1.3097 -0.3326
15218SOL    HW247096   6.782   2.333   6.531 -0.1268  0.4060 -2.1681
15219SOL     OW47097   1.662   3.071   9.711 -0.1538  0.1886 -0.0742
15219SOL    HW147098   1.727   3.125   9.754 -0.3653  1.0138 -0.7745
15219SOL    HW247099   1.581   3.121   9.717 -0.3128  0.0502 -0.9016
15220SOL     OW47100   2.897   4.510   9.132 -0.1507  0.8636 -0.3287
15220SOL    HW147101   2.821   4.455   9.151  0.4703 -1.2611 -3.2175
15220SOL    HW247102   2.968   4.472   9.183  0.1827 -0.9257 -2.0147
15221SOL     OW47103   0.208   2.736   4.148  0.4821 -0.3517  0.1465
15221SOL    HW147104   0.294   2.696   4.141  0.6148 -0.2315  0.9937
15221SOL    HW247105   0.226   2.830   4.155  0.2585 -0.2894 -0.0799
15222SOL     OW47106   1.714   3.552   4.500 -0.2787  0.4360  0.4578
15222SOL    HW147107   1.672   3.467   4.514 -0.2099  0.0846 -1.1818
15222SOL    HW247108   1.642   3.609   4.474 -0.1929  0.6522  0.6960
15223SOL     OW47109   0.942   2.211   9.804  0.3964  0.1870 -0.0527
15223SOL    HW147110   0.855   2.201   9.842  0.4627 -1.1789 -0.2338
15223SOL    HW247111   0.961   2.305   9.813 -0.4474  0.2481  1.4024
15224SOL     OW47112   5.869   0.963   4.031 -0.0116  0.3285 -0.2007
15224SOL    HW147113   5.887   0.989   3.940  0.6856  1.0706  0.1390
15224SOL    HW247114   5.910   1.031   4.084  0.8072 -0.8260  0.7017
15225SOL     OW47115   5.788   5.826   0.299 -0.2837  0.0430  0.1966
15225SOL    HW147116   5.869   5.776   0.311 -0.8828 -0.6901  1.3799
15225SOL    HW247117   5.727   5.788   0.362 -0.3730  3.1779  2.2667
15226SOL     OW47118   3.768   2.423   5.542  0.5422 -0.1771  0.1540
15226SOL    HW147119   3.785   2.332   5.567  0.7827  0.1144  1.0659
15226SOL    HW247120   3.846   2.471   5.571  0.4648  0.3096 -0.4150
15227SOL     OW47121   1.847   0.936   8.964 -0.1266 -0.1958 -0.6049
15227SOL    HW147122   1.840   1.030   8.948  1.5527 -0.0715 -0.7800
15227SOL    HW247123   1.762   0.911   9.000  0.1604  1.8660  1.7858
15228SOL     OW47124   6.233   4.635   2.954  0.3045 -0.0101 -0.3827
15228SOL    HW147125   6.269   4.720   2.980  0.9424  0.1842 -1.8043
15228SOL    HW247126   6.282   4.572   3.006 -0.3374  0.4810  0.8624
15229SOL     OW47127   6.590   0.345   4.256 -0.0719  0.3153  0.2649
15229SOL    HW147128   6.619   0.257   4.278 -0.4219  0.2439  0.4394
15229SOL    HW247129   6.645   0.370   4.181 -0.1050 -0.1228  0.0908
15230SOL     OW47130   3.250   2.774   5.915  0.1617  0.5190  0.3376
15230SOL    HW147131   3.325   2.834   5.923 -0.5325  1.5214 -0.4387
15230SOL    HW247132   3.185   2.810   5.975 -0.4154  0.8021 -0.4456
15231SOL     OW47133   5.774   6.895   1.086  0.2539 -0.4589  0.0678
15231SOL    HW147134   5.817   6.876   1.002  1.3534  1.9026  0.0180
15231SOL    HW247135   5.706   6.958   1.064  2.3001  2.3538  1.1718
15232SOL     OW47136   1.171   0.642   3.964 -0.3333  0.0830 -0.3204
15232SOL    HW147137   1.213   0.559   3.985  0.9214  0.6377 -0.5270
15232SOL    HW247138   1.225   0.679   3.894 -0.8869  1.0567 -0.2519
15233SOL     OW47139   1.174   0.272   8.281 -0.2556  0.1173  0.3771
15233SOL    HW147140   1.256   0.309   8.312 -0.2983 -0.1209  0.7867
15233SOL    HW247141   1.199   0.220   8.205  0.0263 -0.2259  0.6986
15234SOL     OW47142   1.081   3.756   4.747  0.3922  0.3270  0.0586
15234SOL    HW147143   1.087   3.808   4.666 -0.3215  0.5119  0.1251
15234SOL    HW247144   1.086   3.820   4.817 -1.4075  0.4244  0.1361
15235SOL     OW47145   6.826   7.559   5.171  1.0520  0.0282  0.3429
15235SOL    HW147146   6.870   7.643   5.164  3.0837 -0.9142  1.1235
15235SOL    HW247147   6.896   7.494   5.166 -0.5312 -1.6939 -1.2562
15236SOL     OW47148   0.700   6.948   2.755 -0.1705 -0.2197  0.0243
15236SOL    HW147149   0.619   6.933   2.803  0.9453 -1.0594  1.7697
15236SOL    HW247150   0.731   7.033   2.787 -0.3754  0.1330 -0.6908
15237SOL     OW47151   7.252   5.084   5.615 -0.7729 -0.3895 -0.1543
15237SOL    HW147152   7.239   5.142   5.690 -2.7551 -2.2596  1.0701
15237SOL    HW247153   7.347   5.078   5.605 -0.4781  0.7229  1.5405
15238SOL     OW47154   3.193   1.195   3.580 -0.4527  0.0442 -0.4274
15238SOL    HW147155   3.263   1.217   3.643 -0.2499 -1.2845 -0.1568
15238SOL    HW247156   3.155   1.279   3.556 -1.1465  0.5645  2.1883
15239SOL     OW47157   4.691   2.006   7.004 -0.3486  0.3452  0.4268
15239SOL    HW147158   4.652   2.068   7.065 -0.7279  0.7264 -0.2037
15239SOL    HW247159   4.777   1.987   7.042 -0.4678  0.7831  0.9332
15240SOL     OW47160   3.219   0.071   4.598  0.1562 -0.1583  0.5508
15240SOL    HW147161   3.251  -0.019   4.586 -2.0178 -0.8895 -0.3212
15240SOL    HW247162   3.208   0.079   4.693  2.1757 -0.0946  0.8192
15241SOL     OW47163   1.305   4.331   1.720 -0.4561  0.2645  0.6972
15241SOL    HW147164   1.261   4.416   1.721 -1.8338 -0.4130  1.2726
15241SOL    HW247165   1.278   4.289   1.802  1.8555  0.0599  1.4104
15242SOL     OW47166   3.169   0.718   1.449 -0.0493 -1.2346  0.0613
15242SOL    HW147167   3.227   0.794   1.452 -0.6013 -0.6795 -1.7570
15242SOL    HW247168   3.127   0.716   1.535 -0.0757  0.5865  0.1392
15243SOL     OW47169   1.289   0.153   4.226 -0.0251  0.8810  0.6281
15243SOL    HW147170   1.384   0.155   4.237 -0.0914  1.2883  1.1836
15243SOL    HW247171   1.271   0.210   4.152  0.0699  1.7927  1.2942
15244SOL     OW47172   7.863   5.670  11.124 -0.4451  0.7889  0.5063
15244SOL    HW147173   7.867   5.635  11.035 -3.2796  3.3845 -0.8587
15244SOL    HW247174   7.948   5.711  11.137  0.9507 -1.7687  0.0817
15245SOL     OW47175   6.143   3.270   9.942  0.3694 -0.0257 -0.1287
15245SOL    HW147176   6.171   3.336  10.005 -1.8865  0.5327  0.3784
15245SOL    HW247177   6.224   3.244   9.897  1.6833  1.2461  1.3690
15246SOL     OW47178   3.265   1.162   7.163  0.7313 -0.3378 -0.2250
15246SOL    HW147179   3.218   1.236   7.126  1.3689  0.2288  0.0842
15246SOL    HW247180   3.201   1.091   7.164 -0.0994  0.3999  0.1238
15247SOL     OW47181   5.419   5.562   4.895 -0.5657 -0.0938  0.2184
15247SOL    HW147182   5.404   5.548   4.801 -0.2048  1.6258 -0.1516
15247SOL    HW247183   5.487   5.630   4.897  0.0971 -0.7620  1.7431
15248SOL     OW47184   3.992   4.222  10.871 -0.7417  0.0774  0.8226
15248SOL    HW147185   3.942   4.181  10.942  0.2019  0.7675  1.9443
15248SOL    HW247186   3.935   4.291  10.838 -1.1938 -0.2538  0.9140
15249SOL     OW47187   5.284   0.289  10.842 -0.5030 -0.1754 -0.1795
15249SOL    HW147188   5.212   0.275  10.781  0.0013 -1.5959 -0.4685
15249SOL    HW247189   5.242   0.293  10.928 -0.9029 -1.3948 -0.3057
15250SOL     OW47190   7.008   5.508   4.123 -0.1940  0.4162  0.1080
15250SOL    HW147191   7.073   5.576   4.140 -0.4016  0.8353 -0.7193
15250SOL    HW247192   7.019   5.445   4.195  0.4587  0.9759  0.5044
15251SOL     OW47193   7.070   3.077   4.204  0.4951 -0.3572 -0.9296
15251SOL    HW147194   7.114   3.055   4.122  1.3079 -0.3379 -0.5048
15251SOL    HW247195   7.138   3.118   4.258 -0.0527 -0.2819 -0.2806
15252SOL     OW47196   0.626   2.570   1.191  0.0073  0.0916  0.0287
15252SOL    HW147197   0.537   2.538   1.204  0.5214 -0.7297  1.6866
15252SOL    HW247198   0.670   2.557   1.275  2.1073 -0.8123 -1.1190
15253SOL     OW47199   0.739   3.039  10.782 -0.2340  0.3322  0.0247
15253SOL    HW147200   0.685   2.961  10.793  1.9532 -1.3279 -0.1905
15253SOL    HW247201   0.766   3.062  10.871  0.9482 -0.5869 -0.0748
15254SOL     OW47202   7.594   3.178  10.362  0.1646 -0.4393 -0.1699
15254SOL    HW147203   7.509   3.146  10.392  0.0488  0.2416  0.2438
15254SOL    HW247204   7.615   3.249  10.422  0.3124  0.4085 -1.2009
15255SOL     OW47205   6.639   5.047   4.773  0.3389  0.0271  0.4322
15255SOL    HW147206   6.632   4.993   4.851 -0.3762  0.7786  0.9068
15255SOL    HW247207   6.549   5.074   4.754  0.7650  1.9396  0.8743
15256SOL     OW47208   1.687   3.547   2.849 -0.0265 -0.7886  0.3834
15256SOL    HW147209   1.679   3.453   2.866 -1.8063 -0.5935  0.8255
15256SOL    HW247210   1.635   3.562   2.770 -0.1213 -0.1006  0.5709
15257SOL     OW47211   2.977   5.415  10.625 -0.1853 -0.3481 -0.2255
15257SOL    HW147212   2.969   5.403  10.720  0.7720 -2.1792 -0.3103
15257SOL    HW247213   2.917   5.350  10.588  0.5133 -0.6572 -0.8427
15258SOL     OW47214   7.763   2.910   3.999 -0.1250  0.0889 -0.2926
15258SOL    HW147215   7.781   2.870   4.083 -0.8081  0.4652  0.0386
15258SOL    HW247216   7.832   2.876   3.941 -1.4560 -2.6867 -0.4135
15259SOL     OW47217   6.694   5.651   8.053 -0.0937  0.0821 -0.6327
15259SOL    HW147218   6.619   5.680   8.000  0.4477 -0.7992 -1.9373
15259SOL    HW247219   6.683   5.556   8.059 -0.5973  0.2232  1.6168
15260SOL     OW47220   7.086   3.733  12.034 -0.1566  0.2098 -0.2745
15260SOL    HW147221   7.065   3.813  11.985  0.9830  1.3744  1.0392
15260SOL    HW247222   7.156   3.760  12.094 -0.1626 -1.6419  0.6152
15261SOL     OW47223   4.088   0.740   0.968  0.1674 -0.2624  0.3077
15261SOL    HW147224   4.183   0.740   0.971  0.1513 -0.2499  0.9635
15261SOL    HW247225   4.066   0.803   0.900  0.6371 -0.9067 -0.4607
15262SOL     OW47226   1.464   1.719   8.041 -0.2375  0.2874  0.0115
15262SOL    HW147227   1.535   1.681   7.990  0.8564  1.8850  0.2431
15262SOL    HW247228   1.498   1.721   8.131 -1.0700 -0.0381  0.3431
15263SOL     OW47229   6.956   3.863  11.771 -0.8284  0.8381 -0.3422
15263SOL    HW147230   6.964   3.783  11.720 -0.6313  0.9481 -0.4871
15263SOL    HW247231   6.899   3.840  11.845  1.2055 -0.1410  1.0081
15264SOL     OW47232   7.782   3.432   8.097 -0.0233  0.1565  0.0437
15264SOL    HW147233   7.819   3.344   8.095 -0.7029 -0.1513  0.5557
15264SOL    HW247234   7.803   3.465   8.185 -2.7353 -0.8351  1.1543
15265SOL     OW47235   7.658   5.757   6.640  0.8181 -0.1049  0.4159
15265SOL    HW147236   7.579   5.758   6.694  1.3813 -1.2316  1.3019
15265SOL    HW247237   7.632   5.709   6.561  0.4143  0.2344  0.3333
15266SOL     OW47238   7.378   7.946   0.765  0.2695  0.1256 -0.2570
15266SOL    HW147239   7.355   8.017   0.825 -1.1198 -1.1156  0.7852
15266SOL    HW247240   7.312   7.951   0.696  0.5183  0.2002 -0.4879
15267SOL     OW47241   6.291   7.273   7.231 -0.2234 -0.0174 -0.0775
15267SOL    HW147242   6.205   7.238   7.206  0.5016 -1.5291 -0.5698
15267SOL    HW247243   6.337   7.284   7.148  1.2664 -2.5627  0.3134
15268SOL     OW47244   5.181   4.234   3.520 -0.0669 -0.4285  0.5938
15268SOL    HW147245   5.171   4.329   3.511 -0.8415 -0.4645  0.9620
15268SOL    HW247246   5.253   4.224   3.583 -0.1431 -0.0765  0.7416
15269SOL     OW47247   7.278   1.489  11.585 -0.0843  0.2201 -0.6039
15269SOL    HW147248   7.195   1.483  11.539 -0.6901 -0.5696  0.5446
15269SOL    HW247249   7.272   1.423  11.654  1.0004  0.9940  0.2672
15270SOL     OW47250   3.206   4.008   2.397  0.2727 -0.2871 -0.4737
15270SOL    HW147251   3.290   4.030   2.435  0.6195 -1.0509 -0.7804
15270SOL    HW247252   3.227   3.971   2.311 -0.4193  0.2189 -0.8860
15271SOL     OW47253   3.503   3.877   0.465 -0.3290  0.9230  0.0720
15271SOL    HW147254   3.569   3.936   0.428  0.7135 -0.6064 -0.6571
15271SOL    HW247255   3.554   3.802   0.496 -1.6398  0.1889  0.5136
15272SOL     OW47256   7.037   5.768   0.272 -0.3330  0.2281 -0.7053
15272SOL    HW147257   6.987   5.831   0.324 -0.4892  1.0949 -1.8577
15272SOL    HW247258   6.977   5.695   0.258 -1.2349  1.1492 -1.8664
15273SOL     OW47259   3.125   3.085   7.655 -0.5149 -0.4685 -0.1119
15273SOL    HW147260   3.039   3.048   7.634 -0.6747 -0.4699  0.5408
15273SOL    HW247261   3.126   3.170   7.611  0.1538 -1.5195 -2.2785
15274SOL     OW47262   2.225   2.866   3.412 -0.4612 -0.3367 -0.1439
15274SOL    HW147263   2.132   2.875   3.430 -1.0505 -0.6081 -2.7513
15274SOL    HW247264   2.230   2.802   3.341  1.7496 -0.5411  0.1202
15275SOL     OW47265   2.848   4.082   4.129  0.4995 -0.4457  0.6393
15275SOL    HW147266   2.919   4.113   4.185 -0.1685  2.0549  0.2452
15275SOL    HW247267   2.877   4.103   4.040 -0.6517  0.5768  0.4737
15276SOL     OW47268   7.879   3.338   2.328  0.2724  0.2794 -0.1095
15276SOL    HW147269   7.915   3.426   2.316  1.6570 -0.3281 -0.6630
15276SOL    HW247270   7.955   3.280   2.325 -0.6110 -0.9539  0.2128
15277SOL     OW47271   0.204   2.712   9.577  0.1088  0.0606 -0.2131
15277SOL    HW147272   0.210   2.759   9.661  0.8262  1.4255 -0.9993
15277SOL    HW247273   0.294   2.712   9.544 -0.4588  1.2110 -1.8508
15278SOL     OW47274   0.325   7.510   8.484  0.2822 -0.2346 -0.0873
15278SOL    HW147275   0.291   7.499   8.395 -0.0324  1.3754 -0.1954
15278SOL    HW247276   0.414   7.544   8.472 -0.6623  2.5699  0.1353
15279SOL     OW47277   0.727   2.062   5.103 -0.1705  0.0045 -0.1382
15279SOL    HW147278   0.706   2.146   5.063 -0.2777  0.4777  0.8952
15279SOL    HW247279   0.780   2.084   5.179 -1.4649 -0.7362  1.0275
15280SOL     OW47280   4.927   0.067   0.472 -0.1329  0.2291 -0.3095
15280SOL    HW147281   4.855   0.112   0.428 -0.8079 -0.3674  0.1652
15280SOL    HW247282   4.885   0.001   0.526  0.7984 -0.4470 -0.3793
15281SOL     OW47283   7.946   2.078   0.246 -0.0024 -0.9348  1.2354
15281SOL    HW147284   7.981   2.156   0.289 -1.7907 -0.6913  2.3435
15281SOL    HW247285   7.865   2.059   0.293 -0.3359 -2.6359  0.0619
15282SOL     OW47286   5.692   5.208   2.710 -0.4282 -0.3421  0.6295
15282SOL    HW147287   5.622   5.227   2.771 -1.8774  6.1367 -2.2649
15282SOL    HW247288   5.648   5.188   2.628  1.2519 -0.9339 -0.1840
15283SOL     OW47289   1.435   7.119  11.745 -0.2405 -0.1225 -0.4022
15283SOL    HW147290   1.441   7.171  11.665 -1.3834 -0.4657 -0.7240
15283SOL    HW247291   1.343   7.096  11.753 -0.2471  0.3311  1.2964
15284SOL     OW47292   4.259   1.278   3.064  0.2368 -0.0469  0.0783
15284SOL    HW147293   4.203   1.207   3.094  0.4129 -0.9349 -1.6124
15284SOL    HW247294   4.249   1.346   3.130 -2.1316 -0.5434  0.2953
15285SOL     OW47295   0.291   2.783  12.045 -0.2186 -0.1624 -0.2532
15285SOL    HW147296   0.203   2.754  12.070  0.1207 -1.2725 -0.2565
15285SOL    HW247297   0.335   2.702  12.017  1.3932  0.0248  1.5195
15286SOL     OW47298   5.768   2.233   8.127 -0.1799  0.0389 -0.0439
15286SOL    HW147299   5.780   2.294   8.199 -1.5403  1.4233 -0.9208
15286SOL    HW247300   5.682   2.255   8.090 -0.5568 -2.1557 -0.6573
15287SOL     OW47301   1.198   1.087   4.470  0.0372  0.1106 -0.2432
15287SOL    HW147302   1.113   1.114   4.437 -0.1963  2.9100  2.2180
15287SOL    HW247303   1.184   0.999   4.505 -1.3940 -0.0942 -1.2535
15288SOL     OW47304   1.229   0.502   9.898 -0.0171  0.1930 -0.2035
15288SOL    HW147305   1.227   0.582   9.951  0.8670  0.4723 -0.5818
15288SOL    HW247306   1.160   0.448   9.936  0.0145  0.7399  0.6806
15289SOL     OW47307   4.838   5.883  11.129 -0.5879  0.5395  0.9058
15289SOL    HW147308   4.751   5.903  11.097 -0.6066  1.7948  1.6735
15289SOL    HW247309   4.897   5.907  11.058 -0.8306  0.1409  0.5677
15290SOL     OW47310   7.698   2.151   1.428 -0.1845  0.6340 -0.5838
15290SOL    HW147311   7.657   2.078   1.381  1.3026 -0.5740 -0.0907
15290SOL    HW247312   7.664   2.229   1.385 -0.8965 -0.3693 -1.9328
15291SOL     OW47313   5.314   2.305   1.659 -0.2239 -0.8081  0.2061
15291SOL    HW147314   5.267   2.227   1.630 -1.5087 -0.6677  1.8049
15291SOL    HW247315   5.258   2.378   1.631  0.1974 -0.5306  0.0834
15292SOL     OW47316   7.097   4.763  11.311 -0.3412 -0.0669 -0.1197
15292SOL    HW147317   7.022   4.775  11.253  0.0290 -0.7526 -0.7429
15292SOL    HW247318   7.173   4.763  11.253  0.1743  0.7651  0.5172
15293SOL     OW47319   6.015   6.521   3.155 -0.2516 -0.0410  0.4004
15293SOL    HW147320   6.089   6.460   3.147 -0.3913 -0.0984 -0.7077
15293SOL    HW247321   5.938   6.465   3.157 -0.2726  0.0136  1.7056
15294SOL     OW47322   0.032   3.822  12.194  0.4060  0.1156 -0.1262
15294SOL    HW147323  -0.050   3.869  12.181  0.1872 -0.1350  0.3201
15294SOL    HW247324   0.043   3.770  12.114  0.2049  0.2604 -0.2487
15295SOL     OW47325   6.926   5.986   1.239 -0.4968  0.3011  0.1986
15295SOL    HW147326   6.976   6.065   1.258  0.2563  0.2554 -1.4028
15295SOL    HW247327   6.848   6.017   1.193 -0.2404  0.1444 -0.3596
15296SOL     OW47328   0.302   4.981   7.892 -0.3682 -0.3592  0.2004
15296SOL    HW147329   0.273   4.898   7.852 -0.4879 -0.5028  0.5829
15296SOL    HW247330   0.251   5.048   7.846  0.0197 -0.4643 -0.3872
15297SOL     OW47331   1.740   3.168   8.584 -0.1769  0.6874  0.4612
15297SOL    HW147332   1.657   3.120   8.595  0.3083 -0.2205  0.2886
15297SOL    HW247333   1.802   3.122   8.641  0.5204  0.5419 -0.3851
15298SOL     OW47334   3.557   6.391   4.342  0.1200 -0.4491 -0.6665
15298SOL    HW147335   3.596   6.325   4.400 -1.1583  0.4752  1.3665
15298SOL    HW247336   3.611   6.469   4.355  0.1741 -0.3910 -1.2062
15299SOL     OW47337   4.381   4.074   5.940 -0.4028  0.1723 -0.2341
15299SOL    HW147338   4.458   4.108   5.987  1.5918 -2.4464 -1.3279
15299SOL    HW247339   4.418   4.024   5.867 -3.2055 -0.9251 -1.0338
15300SOL     OW47340   5.996   6.112   3.813  0.3204  0.2190  1.1908
15300SOL    HW147341   6.014   6.206   3.818 -1.5318  0.5636  3.1223
15300SOL    HW247342   5.948   6.102   3.731  0.2036  1.0431  1.1459
15301SOL     OW47343   2.886   1.389   0.258  0.0827 -0.1098  0.6790
15301SOL    HW147344   2.861   1.427   0.174 -0.3180 -0.6403  0.5507
15301SOL    HW247345   2.806   1.349   0.291  0.2762 -0.0389  1.2444
15302SOL     OW47346   1.399   1.476   2.842 -0.0345  0.1164  0.1409
15302SOL    HW147347   1.481   1.507   2.804 -0.9432  0.2552 -1.8595
15302SOL    HW247348   1.359   1.423   2.773 -2.5579  1.7192  0.2265
15303SOL     OW47349   5.350   6.467   9.001 -0.3432 -0.1266  0.5880
15303SOL    HW147350   5.352   6.382   9.046  1.1850 -0.5763 -0.2413
15303SOL    HW247351   5.302   6.451   8.920 -1.5327  0.2376  1.2073
15304SOL     OW47352   5.342   5.893   9.302 -0.1325 -0.7530 -0.3324
15304SOL    HW147353   5.357   5.862   9.392 -0.5110 -0.7848 -0.2787
15304SOL    HW247354   5.429   5.920   9.271  0.6264 -3.7553 -1.1143
15305SOL     OW47355   3.212   7.247  10.034  0.3368  0.1290 -0.1798
15305SOL    HW147356   3.194   7.330  10.078 -0.9184 -0.4827  0.5226
15305SOL    HW247357   3.126   7.207  10.022  0.9559 -1.3418  0.0543
15306SOL     OW47358   2.091   5.782   7.350  0.0159 -0.1993  0.2192
15306SOL    HW147359   2.173   5.792   7.301 -0.4915  0.7088 -0.4755
15306SOL    HW247360   2.101   5.698   7.396  0.9579 -0.5476 -0.5748
15307SOL     OW47361   0.711   3.241   8.327  0.2497 -0.2906 -0.0673
15307SOL    HW147362   0.783   3.213   8.384 -0.4023 -0.9836  0.4194
15307SOL    HW247363   0.704   3.172   8.262 -0.1909 -0.3811  0.0774
15308SOL     OW47364   4.219   3.866   2.259 -0.3515  0.2367 -0.3196
15308SOL    HW147365   4.149   3.909   2.209 -0.7485 -0.6298 -0.5215
15308SOL    HW247366   4.211   3.903   2.347 -1.5705 -0.4151 -0.1326
15309SOL     OW47367   4.480   2.452   5.787 -0.6986  0.2496 -0.0682
15309SOL    HW147368   4.445   2.483   5.870 -0.3309  0.3424  0.0537
15309SOL    HW247369   4.540   2.382   5.811  1.2775  1.8603 -0.0364
15310SOL     OW47370   5.718   2.486   2.087 -0.0189  0.1147 -0.1671
15310SOL    HW147371   5.748   2.465   1.999  0.9917 -0.4099  0.2882
15310SOL    HW247372   5.783   2.549   2.120 -0.9992  1.1670 -0.1828
15311SOL     OW47373   6.194   3.709   9.322 -0.1424  0.2617 -0.0716
15311SOL    HW147374   6.218   3.791   9.278  0.2336  0.7675  1.0269
15311SOL    HW247375   6.136   3.664   9.261 -2.1586  2.3617  0.1718
15312SOL     OW47376   0.307   6.691   4.947  0.0823  0.2155  0.4404
15312SOL    HW147377   0.234   6.730   4.995 -1.2581 -0.6088 -0.8433
15312SOL    HW247378   0.353   6.637   5.011  0.7790  2.2742  1.7492
15313SOL     OW47379   6.839   5.647   7.048 -0.6871  0.1206 -0.1869
15313SOL    HW147380   6.903   5.588   7.087 -0.6296  0.8009  0.8067
15313SOL    HW247381   6.883   5.684   6.972 -1.6143 -3.0034 -2.4273
15314SOL     OW47382   0.362   4.084   4.243  0.4807  0.4630 -0.3788
15314SOL    HW147383   0.300   4.113   4.177 -1.1193 -1.6426  0.0966
15314SOL    HW247384   0.321   4.106   4.326  1.8649  1.8759 -0.0132
15315SOL     OW47385   5.912   1.290   3.452 -0.2571  0.4455  0.2158
15315SOL    HW147386   5.839   1.353   3.456 -0.6614  0.1149 -1.2415
15315SOL    HW247387   5.989   1.341   3.478 -0.4614  1.7737 -1.5469
15316SOL     OW47388   2.188   7.456   2.958  0.2307  0.1457  0.4878
15316SOL    HW147389   2.223   7.531   3.006  0.6205  0.7428 -0.7106
15316SOL    HW247390   2.096   7.451   2.986  0.3014  0.8306  0.8639
15317SOL     OW47391   6.135   6.904   4.330 -0.1754 -0.0897 -1.0069
15317SOL    HW147392   6.040   6.902   4.339 -0.1257 -1.5523 -0.5224
15317SOL    HW247393   6.162   6.812   4.330  1.3865  0.2877  0.8227
15318SOL     OW47394   7.386   2.819   5.547 -0.6675  0.4299 -0.1596
15318SOL    HW147395   7.387   2.885   5.478 -0.4769  0.4086 -0.1782
15318SOL    HW247396   7.304   2.834   5.594  0.0527  1.6621  0.7637
15319SOL     OW47397   5.504   0.637   6.681 -0.0385  0.1516  0.1856
15319SOL    HW147398   5.484   0.729   6.663 -0.0843  0.9091  3.4298
15319SOL    HW247399   5.425   0.603   6.722  0.0165 -1.3335 -0.9048
15320SOL     OW47400   4.804   0.487   3.323  0.3464 -0.6574 -0.3088
15320SOL    HW147401   4.731   0.481   3.262  0.0213  0.8772 -0.1101
15320SOL    HW247402   4.786   0.566   3.374  1.1105 -1.3626  1.1224
15321SOL     OW47403   5.858   0.632  11.725  0.2976  0.4856  0.0616
15321SOL    HW147404   5.767   0.648  11.753  0.2270  1.9015 -0.8853
15321SOL    HW247405   5.876   0.701  11.661  2.3524  0.7668  0.8813
15322SOL     OW47406   5.150   2.614   0.221 -0.2747 -0.4602  0.5677
15322SOL    HW147407   5.217   2.672   0.185 -0.4084  1.3996  3.0866
15322SOL    HW247408   5.200   2.546   0.267 -0.1145 -2.6379 -2.4878
15323SOL     OW47409   0.785   2.289   2.548  0.0944 -0.2111  0.0531
15323SOL    HW147410   0.783   2.233   2.470 -1.3194  0.0315 -0.1141
15323SOL    HW247411   0.875   2.322   2.552  0.2874 -0.5323 -1.2476
15324SOL     OW47412   1.967   0.872  12.427  0.0687 -1.2016 -0.0854
15324SOL    HW147413   1.977   0.946  12.366 -0.7506 -1.5981 -0.7114
15324SOL    HW247414   1.883   0.833  12.404 -0.7979 -0.7026  2.0231
15325SOL     OW47415   4.679   3.376   0.358 -0.7090 -0.2502 -0.2598
15325SOL    HW147416   4.667   3.426   0.439 -1.6436 -1.5948  0.4867
15325SOL    HW247417   4.607   3.313   0.359  0.5097 -1.7133 -1.0458
15326SOL     OW47418   0.597   4.409   2.134  0.2409 -0.3335  0.6437
15326SOL    HW147419   0.602   4.314   2.142  0.1096 -0.5535 -1.4227
15326SOL    HW247420   0.688   4.437   2.119  0.4202  0.0087  2.1705
15327SOL     OW47421   2.393   3.618   7.929 -0.0894  0.2219 -0.0779
15327SOL    HW147422   2.414   3.686   7.865  0.3494  0.5698  0.4272
15327SOL    HW247423   2.307   3.585   7.903 -0.9122  1.8826  0.4625
15328SOL     OW47424   3.421   7.251   8.248  0.3808 -0.7308  0.0942
15328SOL    HW147425   3.385   7.274   8.162  1.0211 -2.3793 -0.6715
15328SOL    HW247426   3.407   7.156   8.254  1.3576 -0.8211  1.3296
15329SOL     OW47427   2.063   5.624   8.740  0.3582 -0.4075 -0.1394
15329SOL    HW147428   2.075   5.533   8.765 -3.0513 -1.0451 -0.3459
15329SOL    HW247429   1.998   5.621   8.669  1.9547  2.0612 -1.8756
15330SOL     OW47430   1.136   3.500   4.596 -0.0304  0.5172  0.0229
15330SOL    HW147431   1.049   3.504   4.556 -0.3488  1.7982  0.7827
15330SOL    HW247432   1.149   3.586   4.636  0.3296 -0.5773  2.5203
15331SOL     OW47433   5.177   4.618   2.762 -0.5180  0.2481  0.1289
15331SOL    HW147434   5.225   4.587   2.839 -0.0031 -0.3628 -0.4209
15331SOL    HW247435   5.108   4.553   2.749 -1.2789  0.9232  0.6930
15332SOL     OW47436   0.029   4.889   8.460 -0.0146  0.0191 -0.0724
15332SOL    HW147437   0.022   4.896   8.555  0.8773  1.2502 -0.0781
15332SOL    HW247438   0.123   4.878   8.444 -0.3194 -2.1717 -0.7265
15333SOL     OW47439   4.315   6.643   5.927 -0.2542 -0.3037  0.5073
15333SOL    HW147440   4.301   6.738   5.917 -0.1412 -0.3894 -0.6323
15333SOL    HW247441   4.250   6.603   5.870 -0.2181 -0.9154  0.8879
15334SOL     OW47442   4.880   5.834   3.342 -0.6631  0.4296  0.6571
15334SOL    HW147443   4.899   5.762   3.281  0.1808 -0.0066  1.4076
15334SOL    HW247444   4.834   5.899   3.289  0.0754  0.0791 -0.4574
15335SOL     OW47445   7.297   7.941   2.189 -0.1337  0.0589  0.1354
15335SOL    HW147446   7.363   7.921   2.123 -0.4335  0.3945 -0.2698
15335SOL    HW247447   7.338   7.917   2.272  0.3001 -0.2240 -0.1584
15336SOL     OW47448   3.561   4.445   0.068 -0.2860  0.1485 -0.1392
15336SOL    HW147449   3.471   4.477   0.079  0.1873  1.5977 -0.3357
15336SOL    HW247450   3.560   4.399  -0.016 -0.7067  0.6639 -0.4235
15337SOL     OW47451   7.073   7.338   4.719  0.3018  0.0870 -0.0440
15337SOL    HW147452   7.081   7.417   4.774 -1.0814  0.5074 -0.4058
15337SOL    HW247453   7.114   7.362   4.637 -0.5961  0.6501 -0.3451
15338SOL     OW47454   2.617   3.126   3.619  0.3576  0.1452  0.5414
15338SOL    HW147455   2.656   3.051   3.664 -1.9255 -1.2590  0.3212
15338SOL    HW247456   2.619   3.103   3.526  1.7450  1.4334  0.2131
15339SOL     OW47457   4.030   7.029   6.161  0.4215 -0.1886  0.5264
15339SOL    HW147458   4.039   7.117   6.198  1.3029 -1.0271  2.4858
15339SOL    HW247459   4.097   6.978   6.206  1.9839 -1.2480 -2.7254
15340SOL     OW47460   1.481   1.178   8.225 -0.2132  0.0377 -1.0031
15340SOL    HW147461   1.455   1.087   8.239  2.3909 -0.7466 -0.6794
15340SOL    HW247462   1.572   1.172   8.194  0.8424  2.5625  1.2565
15341SOL     OW47463   3.949   6.568   2.884  0.1893  0.4488  0.4044
15341SOL    HW147464   3.924   6.488   2.839 -0.5178  0.6322  0.4641
15341SOL    HW247465   3.914   6.639   2.830  0.6501  0.7118  0.4469
15342SOL     OW47466   0.325   7.502   4.115  0.0178 -0.1462 -0.0790
15342SOL    HW147467   0.273   7.580   4.136 -0.2012 -0.4370  0.4981
15342SOL    HW247468   0.409   7.536   4.084 -1.5623  0.4455 -4.2587
15343SOL     OW47469   0.900   2.226   0.837  0.0705 -0.1327 -0.0232
15343SOL    HW147470   0.908   2.286   0.911 -0.5805 -1.2281  0.9555
15343SOL    HW247471   0.949   2.269   0.767  2.4218  0.0412  1.5900
15344SOL     OW47472   0.996   2.990   3.509 -0.0887  0.3239 -0.3828
15344SOL    HW147473   1.080   3.034   3.505 -0.1522  0.5128  0.3246
15344SOL    HW247474   0.932   3.061   3.513 -0.2719  0.1795 -0.7512
15345SOL     OW47475   4.090   4.069   0.848 -0.1563  0.2960  0.0399
15345SOL    HW147476   4.040   4.063   0.929 -0.4725 -0.5353 -0.1989
15345SOL    HW247477   4.063   3.991   0.798  1.6511 -0.3801  0.0493
15346SOL     OW47478   1.635   7.226  10.835  0.0786  0.2435 -0.3127
15346SOL    HW147479   1.706   7.291  10.829  1.8270 -1.5601 -0.3014
15346SOL    HW247480   1.637   7.197  10.927  0.4065 -0.9314 -0.6715
15347SOL     OW47481   6.822   1.341  10.974 -0.2088 -0.1557 -0.4233
15347SOL    HW147482   6.820   1.278  10.902 -2.5017 -0.3914 -0.2320
15347SOL    HW247483   6.798   1.425  10.933  1.2652  0.3001 -0.3980
15348SOL     OW47484   1.555   6.248   7.082 -0.0802 -0.1823  0.1960
15348SOL    HW147485   1.554   6.224   7.174 -1.3452  0.2654  0.3171
15348SOL    HW247486   1.586   6.338   7.080 -1.6775  0.4008  0.3668
15349SOL     OW47487   0.801   0.789   7.103 -0.0126  0.6739  0.2160
15349SOL    HW147488   0.761   0.863   7.058 -3.1377 -1.5224 -0.9354
15349SOL    HW247489   0.750   0.778   7.183  0.9284  0.1938  0.7714
15350SOL     OW47490   5.367   1.430   7.727  0.0384 -0.3508  1.0860
15350SOL    HW147491   5.331   1.478   7.801 -2.0859 -0.8349  0.4370
15350SOL    HW247492   5.294   1.424   7.665  1.4479 -0.8654 -0.5933
15351SOL     OW47493   7.449   2.106   4.119  0.2465  0.2275 -0.9851
15351SOL    HW147494   7.355   2.116   4.132  0.3794 -0.4767  0.8764
15351SOL    HW247495   7.457   2.042   4.049 -0.8352 -3.6793  2.0958
15352SOL     OW47496   0.511   1.646   1.527 -0.1908  0.0757  0.4760
15352SOL    HW147497   0.544   1.664   1.439 -1.6367 -0.9231 -0.3177
15352SOL    HW247498   0.556   1.709   1.583  0.7144  0.7845 -0.9838
15353SOL     OW47499   3.512   1.062   4.201  0.1175 -0.2053 -0.2964
15353SOL    HW147500   3.427   1.018   4.193 -0.5928  1.0567  0.0991
15353SOL    HW247501   3.561   1.007   4.262  0.0937 -1.6618 -1.5241
15354SOL     OW47502   1.278   5.008   4.924  0.4561 -0.2511 -0.7875
15354SOL    HW147503   1.228   5.050   4.994 -0.3555 -3.0649  0.4247
15354SOL    HW247504   1.350   5.069   4.907 -0.0158  1.1020  1.5905
15355SOL     OW47505   4.851   1.864   5.251 -0.2895 -0.4887 -0.1230
15355SOL    HW147506   4.888   1.807   5.318 -0.0924 -0.6744 -0.3881
15355SOL    HW247507   4.920   1.928   5.234 -0.7158  0.1681  0.5692
15356SOL     OW47508   7.152   4.527   3.981  0.0360  0.0934  0.3843
15356SOL    HW147509   7.218   4.468   4.019 -0.3683  0.1341  1.1812
15356SOL    HW247510   7.150   4.505   3.888  0.9795 -0.1008  0.3958
15357SOL     OW47511   2.825   7.082  12.214  0.2508  0.1561 -0.5350
15357SOL    HW147512   2.831   6.996  12.256 -0.1143  0.1335 -0.5180
15357SOL    HW247513   2.882   7.139  12.266  0.2577 -0.0089 -0.3615
15358SOL     OW47514   1.459   1.032   4.043 -0.2837  0.2934  0.2159
15358SOL    HW147515   1.540   1.052   4.089 -0.3177 -1.0769  0.9119
15358SOL    HW247516   1.391   1.034   4.111 -0.5819 -0.1151 -0.0631
15359SOL     OW47517   2.154   6.075   6.597 -0.6787  0.0139 -0.2253
15359SOL    HW147518   2.065   6.110   6.608 -0.8197 -0.2623 -0.4514
15359SOL    HW247519   2.174   6.091   6.504  1.1736  3.9012  0.6344
15360SOL     OW47520   1.510   7.664   2.659  0.5910 -0.4776 -0.5610
15360SOL    HW147521   1.585   7.697   2.609 -0.4057 -0.2349 -1.9534
15360SOL    HW247522   1.501   7.724   2.733  0.1258  1.1352 -1.8684
15361SOL     OW47523   4.647   2.595   2.691  0.5996  0.0848 -0.0571
15361SOL    HW147524   4.659   2.651   2.614  1.3675 -0.0981 -0.0745
15361SOL    HW247525   4.680   2.509   2.664 -0.7671 -0.4550 -0.1004
15362SOL     OW47526   4.661   1.725   6.569  0.8223  0.2082 -0.5819
15362SOL    HW147527   4.744   1.751   6.608 -0.1982  1.6698  0.7421
15362SOL    HW247528   4.657   1.771   6.486  0.0379  2.6714  0.7325
15363SOL     OW47529   4.083   2.779   5.282  0.0415  0.3160 -0.0719
15363SOL    HW147530   4.008   2.777   5.343 -1.4068  0.8387 -1.7591
15363SOL    HW247531   4.146   2.718   5.320 -0.9570  0.3490  1.7607
15364SOL     OW47532   1.851   4.940  11.577  0.1093 -0.4044  0.0061
15364SOL    HW147533   1.775   4.888  11.552 -0.4427  1.4661 -2.5849
15364SOL    HW247534   1.908   4.938  11.501  1.7625 -0.1579  1.1898
15365SOL     OW47535   0.141   7.432   4.767  0.0281  0.0210  0.2133
15365SOL    HW147536   0.111   7.348   4.801 -2.2411  0.5353 -0.3829
15365SOL    HW247537   0.196   7.409   4.692 -0.8663 -0.9445 -0.1720
15366SOL     OW47538   2.436   6.597   3.272 -0.1169  0.0719  0.6419
15366SOL    HW147539   2.408   6.660   3.338 -0.2732  1.0098 -0.2863
15366SOL    HW247540   2.522   6.567   3.302  0.1915  1.1158  0.8393
15367SOL     OW47541   6.456   1.007   6.408  0.4398 -0.4156 -0.2377
15367SOL    HW147542   6.435   0.955   6.486 -0.0685  0.4921  0.2532
15367SOL    HW247543   6.550   1.022   6.414  0.5324 -0.9837 -0.2025
15368SOL     OW47544   1.661   3.127   0.079  0.5608  0.2922 -0.5214
15368SOL    HW147545   1.636   3.204   0.028 -0.2846 -0.4183 -1.2278
15368SOL    HW247546   1.601   3.058   0.049 -0.1385 -0.0936  1.6533
15369SOL     OW47547   3.052   7.069   3.833 -0.0351 -0.1538 -0.2850
15369SOL    HW147548   3.083   7.024   3.755  1.1202 -0.6422  0.4305
15369SOL    HW247549   3.110   7.039   3.903 -0.3310  1.1269  0.5497
15370SOL     OW47550   2.614   4.428   5.541  0.0426  0.1275  0.0770
15370SOL    HW147551   2.582   4.396   5.457 -1.4152 -0.2397  0.7456
15370SOL    HW247552   2.664   4.355   5.577  0.0054  0.0028 -0.1248
15371SOL     OW47553   4.506   0.615   1.620 -0.5258  0.5739 -0.3466
15371SOL    HW147554   4.517   0.630   1.714 -0.2925  2.2191 -0.6124
15371SOL    HW247555   4.587   0.573   1.593 -0.2952  0.7423  0.0695
15372SOL     OW47556   6.531   4.089   6.234  0.1847  0.0174  0.1263
15372SOL    HW147557   6.524   4.163   6.173 -1.9452  0.3088  0.6798
15372SOL    HW247558   6.588   4.121   6.304 -0.7622  1.1655  0.3924
15373SOL     OW47559   2.132   2.039   0.662  0.1356 -0.7642  0.0851
15373SOL    HW147560   2.101   2.085   0.583  1.6677 -1.3234 -0.8967
15373SOL    HW247561   2.198   2.098   0.699 -0.1009 -0.8056  0.5673
15374SOL     OW47562   2.808   2.813  10.691  0.4945 -0.0550 -0.5315
15374SOL    HW147563   2.770   2.897  10.667  2.3232  1.1020  0.4465
15374SOL    HW247564   2.850   2.828  10.775  1.9995 -1.5755 -0.9522
15375SOL     OW47565   2.864   7.394   7.974  1.2683 -0.2462 -0.3324
15375SOL    HW147566   2.879   7.442   8.055 -2.2523 -2.5120  1.8981
15375SOL    HW247567   2.927   7.322   7.976  0.5627 -0.8603  0.9708
15376SOL     OW47568   5.316   4.349  10.385 -0.3371 -0.6117 -0.0609
15376SOL    HW147569   5.300   4.422  10.445 -0.0618  1.5379 -2.4139
15376SOL    HW247570   5.232   4.332  10.344 -0.3498 -1.5423  0.3136
15377SOL     OW47571   6.486   0.220   1.587  0.0987  0.2444  0.5896
15377SOL    HW147572   6.570   0.213   1.543 -0.4954 -0.8489 -0.4362
15377SOL    HW247573   6.463   0.130   1.610  0.1225  0.7211  2.6912
15378SOL     OW47574   4.465   2.147   4.683  0.3885  0.2934  0.7042
15378SOL    HW147575   4.441   2.090   4.611  3.2109  0.8044 -0.7507
15378SOL    HW247576   4.485   2.087   4.756  0.4123 -0.3971  0.1369
15379SOL     OW47577   1.465   5.397   5.003  0.8322  0.3670  0.5026
15379SOL    HW147578   1.493   5.313   5.040  0.5590 -0.3420 -0.8497
15379SOL    HW247579   1.370   5.390   4.998  0.9495 -0.7881 -2.9626
15380SOL     OW47580   2.347   5.720  11.647 -0.7759 -0.1803 -0.1011
15380SOL    HW147581   2.404   5.647  11.669  0.7653  0.7263 -0.8502
15380SOL    HW247582   2.264   5.680  11.622 -0.3022 -1.5912  0.5275
15381SOL     OW47583   4.863   6.921  11.263 -0.0038 -0.7014 -0.4155
15381SOL    HW147584   4.768   6.910  11.256 -0.8390  3.6947  1.1093
15381SOL    HW247585   4.888   6.973  11.187  0.6235  0.5698  0.6198
15382SOL     OW47586   5.563   2.671   9.634 -0.4044  0.0618 -0.4450
15382SOL    HW147587   5.543   2.710   9.549 -1.0420 -0.1969 -0.4141
15382SOL    HW247588   5.623   2.734   9.675 -1.2744  0.9340 -0.4641
15383SOL     OW47589   4.431   7.904   8.820  0.2076 -0.0109 -0.1139
15383SOL    HW147590   4.390   7.983   8.785 -1.7297 -0.3279  1.2539
15383SOL    HW247591   4.463   7.929   8.907 -1.7568 -0.9801  0.9846
15384SOL     OW47592   6.105   0.790   4.031 -0.4161 -0.1266 -0.5583
15384SOL    HW147593   6.182   0.818   3.983  0.8814 -0.2057  1.3529
15384SOL    HW247594   6.032   0.834   3.988  0.9434  1.8072 -1.0245
15385SOL     OW47595   0.586   6.323  10.388  0.2011  0.2299 -0.4210
15385SOL    HW147596   0.672   6.357  10.414  0.7133 -0.4370 -1.1947
15385SOL    HW247597   0.542   6.303  10.471  0.7601  0.6375 -0.0144
15386SOL     OW47598   1.078   1.886  11.327 -0.1017  0.1877  0.5542
15386SOL    HW147599   1.026   1.807  11.345 -0.9378  0.7916  0.8169
15386SOL    HW247600   1.068   1.899  11.232 -0.1467  0.1028  0.5468
15387SOL     OW47601   0.197   2.145   1.097  0.0123  0.5748 -0.1186
15387SOL    HW147602   0.212   2.206   1.026 -1.0365  0.7004 -0.2484
15387SOL    HW247603   0.119   2.179   1.142  1.3457  1.2235  1.8763
15388SOL     OW47604   0.120   6.560   3.137 -0.5160  0.1376  0.3312
15388SOL    HW147605   0.145   6.470   3.119  2.3064  0.5394  1.7383
15388SOL    HW247606   0.059   6.555   3.211 -1.5580 -0.6491 -0.5529
15389SOL     OW47607   7.417   3.199   7.939  0.0390  0.2714  0.0033
15389SOL    HW147608   7.336   3.148   7.939 -0.1247  0.5253 -0.4736
15389SOL    HW247609   7.437   3.212   7.846 -0.4599  1.9127  0.1056
15390SOL     OW47610   4.920   5.587  10.883  0.0532 -0.5369  0.0749
15390SOL    HW147611   4.839   5.635  10.864 -0.2270 -1.0893 -0.1277
15390SOL    HW247612   4.950   5.555  10.798 -0.4775 -1.8554  0.3602
15391SOL     OW47613   3.206   6.882  11.159  0.1499  0.1941  0.6904
15391SOL    HW147614   3.161   6.875  11.244  0.2277  1.6119  0.8833
15391SOL    HW247615   3.264   6.806  11.156  0.6369  0.4503  2.2311
15392SOL     OW47616   3.263   1.007   3.362 -0.2390 -0.0283 -0.5611
15392SOL    HW147617   3.250   1.076   3.427  0.5631  1.9135 -2.3489
15392SOL    HW247618   3.178   0.964   3.354 -0.6012  0.3291  1.0170
15393SOL     OW47619   3.278   7.342   0.556 -0.0389 -0.0808 -0.6419
15393SOL    HW147620   3.361   7.306   0.525  1.0825 -0.6312  2.6332
15393SOL    HW247621   3.293   7.437   0.561  0.2198 -0.1270 -0.5285
15394SOL     OW47622   4.528   1.921   8.937 -0.2062 -0.4287  0.5206
15394SOL    HW147623   4.512   1.835   8.976 -0.7722 -0.1077  1.0196
15394SOL    HW247624   4.540   1.904   8.844  0.6287 -1.1548  0.7492
15395SOL     OW47625   2.319   6.308   0.761  0.1040  0.2250 -0.2685
15395SOL    HW147626   2.228   6.316   0.789  0.0292  1.7724 -0.8724
15395SOL    HW247627   2.324   6.357   0.679  1.9592  2.1590  0.9023
15396SOL     OW47628   6.022   0.957   7.748  0.0143 -0.3550 -0.0024
15396SOL    HW147629   6.008   0.873   7.791 -0.6000  0.2297  0.9679
15396SOL    HW247630   6.116   0.962   7.733  0.5246  0.1773  2.8800
15397SOL     OW47631   2.898   1.151   2.296  0.1994 -0.7563 -0.6625
15397SOL    HW147632   2.915   1.237   2.257  0.1280  0.0382  0.9396
15397SOL    HW247633   2.976   1.099   2.275 -0.9400 -1.3330 -4.1221
15398SOL     OW47634   6.827   5.294   8.344  0.2613  0.3758 -0.7978
15398SOL    HW147635   6.765   5.275   8.414 -0.4431  0.2662 -1.4365
15398SOL    HW247636   6.852   5.207   8.311  0.0902  0.4426 -1.1058
15399SOL     OW47637   3.029   3.780   3.966  0.1753 -0.6287 -0.5624
15399SOL    HW147638   3.097   3.846   3.953  0.2303 -0.1828  1.6082
15399SOL    HW247639   3.068   3.699   3.933  1.8315 -0.3981  0.6720
15400SOL     OW47640   3.374   2.268   0.451  0.1644 -0.1110 -0.1945
15400SOL    HW147641   3.376   2.342   0.512 -0.2303 -0.8141  0.7021
15400SOL    HW247642   3.332   2.303   0.372 -0.8963  0.3768  0.5637
15401SOL     OW47643   5.723   5.183   9.132 -0.3310  1.0478 -0.0382
15401SOL    HW147644   5.700   5.256   9.075  0.7728  1.4715  0.0314
15401SOL    HW247645   5.675   5.108   9.096  0.4020  1.2862 -1.5884
15402SOL     OW47646   6.782   0.429   0.809 -0.6273  0.1138 -0.1206
15402SOL    HW147647   6.826   0.411   0.892  2.1414 -2.7528 -1.9774
15402SOL    HW247648   6.831   0.502   0.771  0.1215 -0.6034 -0.5488
15403SOL     OW47649   5.559   5.507   8.755 -0.0834 -0.2199  0.1934
15403SOL    HW147650   5.602   5.541   8.676  1.7622 -0.9869  0.7963
15403SOL    HW247651   5.467   5.500   8.731  0.5351 -1.2458 -2.2304
15404SOL     OW47652   0.985   5.638   9.923  0.0193  0.2783  1.1436
15404SOL    HW147653   1.003   5.702   9.992  0.6445  3.3989 -1.6778
15404SOL    HW247654   0.902   5.667   9.885  0.4341 -0.4460 -0.3504
15405SOL     OW47655   5.952   4.090   6.119 -0.1121  0.1055 -0.3835
15405SOL    HW147656   5.874   4.037   6.104 -0.8986  1.4532 -1.2775
15405SOL    HW247657   6.018   4.029   6.152 -0.8327 -1.4992 -1.8136
15406SOL     OW47658   6.951   4.452   4.164 -0.0663 -0.0364  0.1650
15406SOL    HW147659   6.988   4.513   4.100  2.4085 -0.1728  1.3521
15406SOL    HW247660   6.932   4.373   4.113  0.1504  0.4722 -0.7312
15407SOL     OW47661   7.296   2.582   7.107 -0.0247 -0.0290  0.3676
15407SOL    HW147662   7.370   2.521   7.112 -0.6560 -0.8208  0.2702
15407SOL    HW247663   7.284   2.612   7.197  1.7928  1.8216  0.0630
15408SOL     OW47664   3.569   1.110   3.302 -0.2789 -0.1691 -0.2798
15408SOL    HW147665   3.550   1.031   3.352 -0.1559  0.1188  0.2298
15408SOL    HW247666   3.586   1.177   3.369  2.2529 -0.3348 -0.6639
15409SOL     OW47667   7.540   5.282   8.906 -0.0882  0.3943  0.2378
15409SOL    HW147668   7.517   5.374   8.918 -0.3961  0.3101  0.3044
15409SOL    HW247669   7.461   5.243   8.869  0.3020  0.3097 -0.4999
15410SOL     OW47670   2.125   6.660   7.426 -0.4627  0.4098 -0.0642
15410SOL    HW147671   2.115   6.754   7.416 -2.5509  0.1624 -0.8917
15410SOL    HW247672   2.051   6.623   7.378  0.4611 -1.6663  0.0064
15411SOL     OW47673   4.569   6.939   9.135 -0.0127  0.1642 -0.5642
15411SOL    HW147674   4.535   6.921   9.048 -0.8014 -0.8156 -0.0845
15411SOL    HW247675   4.664   6.925   9.127 -0.1425 -0.4535 -1.1421
15412SOL     OW47676   6.525   2.809  11.423 -0.8132  0.0754 -1.0587
15412SOL    HW147677   6.510   2.742  11.490  0.2906  0.2850 -0.5941
15412SOL    HW247678   6.612   2.844  11.442  0.1016 -0.7550 -3.3525
15413SOL     OW47679   3.694   2.053   4.111 -0.8521 -0.3532 -0.5232
15413SOL    HW147680   3.681   1.984   4.045 -0.4117  0.0387 -1.0350
15413SOL    HW247681   3.783   2.085   4.094 -1.2769  0.7754 -0.7188
15414SOL     OW47682   2.045   4.110  10.818 -0.2841 -0.3908  0.4865
15414SOL    HW147683   1.987   4.079  10.748 -0.0282 -0.5206  0.3308
15414SOL    HW247684   2.127   4.063  10.803 -0.6732 -1.4939  1.7159
15415SOL     OW47685   6.494   0.808   0.141 -0.0865 -0.2977  0.6653
15415SOL    HW147686   6.454   0.758   0.212  1.8730 -0.2776  1.8600
15415SOL    HW247687   6.547   0.875   0.186 -0.3448  0.9946 -0.8577
15416SOL     OW47688   4.992   6.146   9.528  0.5557 -0.1690  0.3773
15416SOL    HW147689   4.927   6.217   9.526 -0.1276 -0.8072 -0.9278
15416SOL    HW247690   5.067   6.181   9.480  0.4989 -0.0587  0.3691
15417SOL     OW47691   1.183   6.198   3.297 -0.1939  0.0291  0.0178
15417SOL    HW147692   1.174   6.109   3.329  1.4555 -0.0235  0.4228
15417SOL    HW247693   1.094   6.225   3.275 -1.1692 -0.6370  2.7418
15418SOL     OW47694   6.615   0.011   3.563  0.1580  0.2708  0.2787
15418SOL    HW147695   6.707   0.038   3.554  0.8015 -0.6699  2.9894
15418SOL    HW247696   6.615  -0.081   3.536 -0.3075  0.6353 -1.0201
15419SOL     OW47697   3.490   2.580  10.490  0.1254  0.2019 -0.0285
15419SOL    HW147698   3.474   2.658  10.437  1.8904 -0.8655 -2.3161
15419SOL    HW247699   3.522   2.614  10.574 -0.4360  1.9427 -0.4829
15420SOL     OW47700   5.009   2.850   8.672  0.1523  0.4210 -0.2418
15420SOL    HW147701   5.006   2.890   8.585 -1.5322  1.8550  0.4188
15420SOL    HW247702   4.918   2.830   8.692  0.5717 -0.3450  1.0067
15421SOL     OW47703   1.736   2.282   5.388 -0.4993  0.0255  0.2535
15421SOL    HW147704   1.720   2.357   5.331  1.6668  1.3335  1.2349
15421SOL    HW247705   1.659   2.226   5.377 -2.1908  2.3664 -0.5201
15422SOL     OW47706   1.110   2.472   9.220 -0.7790  0.4800  0.4131
15422SOL    HW147707   1.185   2.418   9.195 -0.0999  1.4735  0.2694
15422SOL    HW247708   1.144   2.532   9.286 -1.5603  0.6369  0.6800
15423SOL     OW47709   2.642   1.675   6.577  0.2292 -0.2388 -0.2009
15423SOL    HW147710   2.669   1.595   6.622  1.8641 -0.1485 -0.9199
15423SOL    HW247711   2.582   1.645   6.508 -0.9389 -0.5575  0.9159
15424SOL     OW47712   0.190   2.246   8.769 -0.5827  0.1767  0.0952
15424SOL    HW147713   0.218   2.314   8.707  1.6752  0.3442  1.2004
15424SOL    HW247714   0.096   2.261   8.780 -0.9453  0.5647 -2.7194
15425SOL     OW47715   0.817   4.806   0.336 -0.3663 -0.6248  0.3551
15425SOL    HW147716   0.858   4.791   0.250 -2.0224  1.2461 -0.8675
15425SOL    HW247717   0.812   4.719   0.376  0.2204 -1.6016 -1.5551
15426SOL     OW47718   0.517   3.310   4.428 -0.0439 -0.1724 -0.5478
15426SOL    HW147719   0.430   3.275   4.449 -0.3015 -0.7212 -2.3719
15426SOL    HW247720   0.549   3.254   4.357  1.9628 -0.1857  0.2927
15427SOL     OW47721   3.363   4.936   0.041 -0.4009  0.1652  0.2252
15427SOL    HW147722   3.316   4.862   0.080 -2.2991  1.4294  0.4442
15427SOL    HW247723   3.327   5.013   0.085  0.1258  1.3642 -1.3546
15428SOL     OW47724   4.269   5.905   1.171  0.3398  0.3687  0.3620
15428SOL    HW147725   4.298   5.816   1.148  0.8090  0.8268 -0.9110
15428SOL    HW247726   4.216   5.893   1.249  2.0011 -0.8134  1.3836
15429SOL     OW47727   4.022   4.306   1.889 -0.6268  0.0072 -0.9879
15429SOL    HW147728   4.060   4.219   1.873 -0.6497  0.0705 -1.4041
15429SOL    HW247729   4.015   4.345   1.802  1.3786  1.2727 -0.6423
15430SOL     OW47730   1.226   6.875   5.468  0.3497 -0.0672 -0.4087
15430SOL    HW147731   1.213   6.852   5.560  1.0318  0.5289 -0.1564
15430SOL    HW247732   1.312   6.839   5.446 -0.2604 -1.1179 -1.1169
15431SOL     OW47733   3.634   1.846   3.320 -0.0377  0.1958 -0.2910
15431SOL    HW147734   3.726   1.821   3.320 -0.4145 -1.3374 -1.6263
15431SOL    HW247735   3.632   1.929   3.367  2.1087  0.5715 -0.7566
15432SOL     OW47736   6.452   3.321   8.045  0.5305 -0.8504 -0.1354
15432SOL    HW147737   6.512   3.365   8.106 -1.9241  1.1977  0.9946
15432SOL    HW247738   6.505   3.305   7.966  2.0898  2.7053  0.0158
15433SOL     OW47739   6.210   0.131   0.915 -0.2712  0.5348  0.6131
15433SOL    HW147740   6.158   0.061   0.874 -0.0945  0.5877  0.2945
15433SOL    HW247741   6.200   0.205   0.856  0.9248  0.2691  0.0428
15434SOL     OW47742   5.678   7.745  10.279  0.3187  0.1134 -0.1157
15434SOL    HW147743   5.595   7.698  10.275  1.1261 -1.5554  1.2550
15434SOL    HW247744   5.744   7.679  10.258  1.3997  1.0095  0.3519
15435SOL     OW47745   4.891   6.461   7.403 -0.0373  0.5884  0.1818
15435SOL    HW147746   4.901   6.378   7.448  1.5535 -0.5636 -2.0843
15435SOL    HW247747   4.946   6.522   7.451 -0.7691  0.2357  1.5271
15436SOL     OW47748   5.737   5.071   6.525 -0.0669  0.1225 -0.2038
15436SOL    HW147749   5.795   5.057   6.450  0.8107  0.2773  0.4295
15436SOL    HW247750   5.780   5.025   6.597  0.0513  1.4839  0.6356
15437SOL     OW47751   1.640   7.379   2.001  0.2404 -0.2645  0.2892
15437SOL    HW147752   1.551   7.361   1.972 -0.0327 -0.1084  1.0039
15437SOL    HW247753   1.633   7.388   2.096  1.0869 -0.6556  0.4014
15438SOL     OW47754   6.532   1.102  10.883 -0.0116  0.3408 -0.0783
15438SOL    HW147755   6.559   1.184  10.924 -0.1424 -0.3058  1.3479
15438SOL    HW247756   6.448   1.122  10.842  0.6838  1.3072 -1.1014
15439SOL     OW47757   4.275   7.905  10.933 -0.2121 -0.3975  0.2494
15439SOL    HW147758   4.190   7.927  10.970 -0.5814 -0.9939 -0.2326
15439SOL    HW247759   4.302   7.827  10.980  0.8541  0.7150  1.5837
15440SOL     OW47760   6.395   5.442   3.780 -0.4568  0.2964 -0.1870
15440SOL    HW147761   6.468   5.483   3.734 -1.5213  3.0989  0.4151
15440SOL    HW247762   6.407   5.468   3.872 -0.9436 -1.2383  0.3525
15441SOL     OW47763   2.187   5.351  12.202 -1.2425 -0.4155 -0.2887
15441SOL    HW147764   2.146   5.376  12.285  1.0941  0.8885  0.5729
15441SOL    HW247765   2.208   5.435  12.160  0.2180 -1.0195 -0.8216
15442SOL     OW47766   0.631   5.848   9.178  0.9703 -0.1647 -0.3423
15442SOL    HW147767   0.578   5.842   9.257  2.5700 -1.0822  0.7068
15442SOL    HW247768   0.607   5.932   9.140 -0.0888  0.1432  0.9227
15443SOL     OW47769   6.930   1.237   1.007 -0.2395 -0.1628 -0.5210
15443SOL    HW147770   6.874   1.167   0.974 -0.1528 -1.0417  1.1075
15443SOL    HW247771   6.895   1.316   0.967 -0.7099 -1.0507 -1.9453
15444SOL     OW47772   6.573   6.405   4.899  0.0128  0.0022  0.0562
15444SOL    HW147773   6.647   6.350   4.927 -0.8904 -1.1402  0.2556
15444SOL    HW247774   6.601   6.494   4.921  1.0134 -0.4755  0.8524
15445SOL     OW47775   5.789   4.532   9.520 -0.1768  0.0886  0.1290
15445SOL    HW147776   5.770   4.622   9.495 -0.9231  0.4241  1.7779
15445SOL    HW247777   5.793   4.534   9.616  1.5984 -1.2925  0.1410
15446SOL     OW47778   0.020   5.449   9.741  0.0342 -0.3437  0.2789
15446SOL    HW147779   0.101   5.403   9.721  0.7984  1.8397 -2.1225
15446SOL    HW247780   0.004   5.505   9.665 -1.6684  2.1439  2.2818
15447SOL     OW47781   7.615   7.326  11.821  0.0010  0.4066  0.5102
15447SOL    HW147782   7.556   7.257  11.789  0.4025  0.8663 -1.3296
15447SOL    HW247783   7.565   7.407  11.808  0.1851  0.6094  1.0609
15448SOL     OW47784   3.941   3.855   4.457  0.6495 -0.1921  0.2975
15448SOL    HW147785   3.907   3.917   4.522  1.5286 -1.1206  1.7071
15448SOL    HW247786   3.871   3.791   4.446  0.3643  0.1587  0.0755
15449SOL     OW47787   5.623   5.648   0.447  0.5379 -0.2354 -0.3130
15449SOL    HW147788   5.541   5.621   0.488  0.3485  1.4387  0.4895
15449SOL    HW247789   5.690   5.630   0.512  0.6574 -0.4671 -0.4969
15450SOL     OW47790   3.124   5.757   0.355  0.3296 -0.3919  0.1438
15450SOL    HW147791   3.203   5.753   0.301 -0.7279  1.3527 -1.6442
15450SOL    HW247792   3.052   5.756   0.293 -1.0037  0.2803  1.6064
15451SOL     OW47793   1.312   6.158   2.655  0.3372  0.0747 -0.0427
15451SOL    HW147794   1.262   6.177   2.734 -1.0471 -0.3354 -0.7934
15451SOL    HW247795   1.368   6.235   2.643 -1.8649  1.7233 -0.5083
15452SOL     OW47796   3.095   2.213   0.958  0.8453 -0.3307  0.2584
15452SOL    HW147797   3.174   2.164   0.980  1.1844 -0.2141 -0.6265
15452SOL    HW247798   3.094   2.214   0.862  0.2347  0.4180  0.2646
15453SOL     OW47799   4.253   3.513  11.990 -0.2132 -0.5171 -0.6210
15453SOL    HW147800   4.265   3.605  11.966 -0.2126 -0.4221 -0.2611
15453SOL    HW247801   4.223   3.471  11.909 -0.7883 -0.0867 -0.6381
15454SOL     OW47802   7.730   6.602   5.440 -0.8941 -0.0914  0.3591
15454SOL    HW147803   7.735   6.508   5.455 -0.9200 -0.1496  0.0008
15454SOL    HW247804   7.699   6.638   5.523  0.2309 -0.2858  0.8814
15455SOL     OW47805   1.004   2.690   3.457 -0.8170 -0.2331  0.1149
15455SOL    HW147806   0.965   2.777   3.469 -0.4121 -0.1018  0.5174
15455SOL    HW247807   0.929   2.631   3.454 -1.1653  0.2417 -1.3475
15456SOL     OW47808   3.953   7.337   4.482 -0.5527 -0.5813  0.1167
15456SOL    HW147809   3.928   7.251   4.516 -0.7116 -0.8776 -0.7239
15456SOL    HW247810   3.870   7.376   4.453 -0.4682 -0.1868  0.4061
15457SOL     OW47811   4.918   2.693   1.485  0.5770  0.8062  0.1627
15457SOL    HW147812   4.895   2.785   1.493  2.4082  1.4344 -0.9519
15457SOL    HW247813   4.958   2.686   1.398  3.2931 -0.3572  1.3951
15458SOL     OW47814   5.553   3.547  11.300  0.2235  0.8891  0.3758
15458SOL    HW147815   5.497   3.480  11.340  0.1230  0.0022 -1.1450
15458SOL    HW247816   5.510   3.567  11.217  0.4228  2.6522  0.6657
15459SOL     OW47817   2.019   7.348   8.928 -0.4969  0.3922  0.9913
15459SOL    HW147818   2.091   7.373   8.987  1.3526  0.0405 -1.0116
15459SOL    HW247819   2.035   7.256   8.908 -0.5265  0.7487 -0.7886
15460SOL     OW47820   6.550   2.710   9.194  0.1004  1.3384  0.2314
15460SOL    HW147821   6.500   2.724   9.274 -2.2653 -1.8697 -0.4653
15460SOL    HW247822   6.609   2.637   9.216 -1.3536 -0.3279 -1.1266
15461SOL     OW47823   6.905   5.478  12.318  0.0732 -0.2443 -0.1750
15461SOL    HW147824   6.885   5.517  12.403 -1.4125  1.4595 -1.2358
15461SOL    HW247825   6.977   5.531  12.284 -1.0314  0.7539 -1.0309
15462SOL     OW47826   2.751   3.141  11.176  0.2721  0.2930 -0.0885
15462SOL    HW147827   2.784   3.145  11.086  1.2845  0.3727  0.2698
15462SOL    HW247828   2.817   3.091  11.224 -0.2900  0.1894  0.6033
15463SOL     OW47829   5.058   4.754   5.562  0.1422  0.0814 -0.5597
15463SOL    HW147830   5.037   4.748   5.468 -1.7998 -2.3574 -0.0594
15463SOL    HW247831   4.980   4.791   5.602  0.3421 -0.4113  0.3073
15464SOL     OW47832   0.619   1.984  11.850  0.6097 -0.5598  0.0317
15464SOL    HW147833   0.524   1.973  11.849  0.6354 -1.1138  1.6830
15464SOL    HW247834   0.642   1.996  11.942  1.9603  1.5179 -0.4894
15465SOL     OW47835   4.511   1.226  10.168  0.4368 -0.3583  0.3703
15465SOL    HW147836   4.533   1.169  10.241 -0.0254 -1.3814 -0.2732
15465SOL    HW247837   4.572   1.202  10.099  1.5292  1.2768  0.6988
15466SOL     OW47838   7.246   6.113  10.943 -0.2747  0.1053 -0.4473
15466SOL    HW147839   7.272   6.193  10.898  0.2166 -0.3873 -1.0662
15466SOL    HW247840   7.227   6.140  11.033  1.5977  0.6264 -0.1721
15467SOL     OW47841   7.097   2.115  11.129  0.5297  0.1803 -0.5660
15467SOL    HW147842   7.102   2.053  11.057  2.3508  1.8282 -1.9993
15467SOL    HW247843   7.004   2.132  11.141  0.1514 -0.8206 -1.8967
15468SOL     OW47844   1.868   7.247  10.623 -0.0262 -0.3987  0.2508
15468SOL    HW147845   1.788   7.205  10.656  0.5585  0.0052  2.3911
15468SOL    HW247846   1.872   7.330  10.672  0.4971  0.6874 -1.5468
15469SOL     OW47847   6.329   0.687   8.982 -0.0950  0.0344  0.4107
15469SOL    HW147848   6.284   0.737   8.915 -1.4349 -1.2662  0.2868
15469SOL    HW247849   6.355   0.606   8.937 -0.9351 -0.8150  1.4048
15470SOL     OW47850   6.266   0.527   6.965  0.3091 -0.1750  0.0767
15470SOL    HW147851   6.234   0.443   6.932  2.1889 -2.0779  2.6041
15470SOL    HW247852   6.217   0.541   7.046 -0.5022  1.6045 -0.6874
15471SOL     OW47853   1.473   7.594   0.187 -0.4329  0.7247  0.5454
15471SOL    HW147854   1.464   7.640   0.104 -0.0055  2.5318  1.4328
15471SOL    HW247855   1.567   7.599   0.207 -0.5302  0.3282  1.1303
15472SOL     OW47856   1.787   3.186   7.011 -0.1041  0.6661 -0.1653
15472SOL    HW147857   1.748   3.195   7.098  0.9155  1.6613  0.2173
15472SOL    HW247858   1.714   3.162   6.954 -1.1241  1.7113  0.6578
15473SOL     OW47859   3.312   2.824   4.103 -0.6464 -0.3727 -0.0935
15473SOL    HW147860   3.369   2.807   4.028 -1.6444 -0.1766 -0.9057
15473SOL    HW247861   3.372   2.849   4.174  0.2796 -0.2799 -0.9000
15474SOL     OW47862   7.352   7.841   6.222 -0.1282 -0.1420 -0.0012
15474SOL    HW147863   7.413   7.843   6.296  0.9867  0.5096 -0.9177
15474SOL    HW247864   7.361   7.926   6.180 -0.1541 -0.7905 -1.3714
15475SOL     OW47865   1.090   3.682   9.633  0.5171 -0.1603  0.0006
15475SOL    HW147866   1.020   3.621   9.658 -1.2921  1.2308 -1.4596
15475SOL    HW247867   1.169   3.644   9.672 -0.9424 -2.0503  1.3079
15476SOL     OW47868   0.453   6.372   9.187 -0.3066 -0.0915  0.9423
15476SOL    HW147869   0.502   6.430   9.245 -1.2722  3.1579 -1.2172
15476SOL    HW247870   0.508   6.363   9.109 -1.3023  0.1378  0.1884
15477SOL     OW47871   0.341   6.670   2.529  0.4360 -0.2790 -0.1726
15477SOL    HW147872   0.389   6.637   2.453  0.0019 -1.3915  0.0136
15477SOL    HW247873   0.401   6.656   2.603  0.1690 -0.8457 -0.0634
15478SOL     OW47874   6.383   6.897   6.158 -0.2348 -0.7527 -0.3323
15478SOL    HW147875   6.430   6.816   6.177 -1.0773 -1.5465 -1.4415
15478SOL    HW247876   6.294   6.881   6.188 -0.2878 -0.0389 -0.0946
15479SOL     OW47877   7.736   5.369   2.301 -0.1446  0.2672  0.2757
15479SOL    HW147878   7.787   5.447   2.324 -1.0677  0.3343  2.3189
15479SOL    HW247879   7.790   5.296   2.332  0.2215  0.1260 -0.6544
15480SOL     OW47880   7.619   1.829   5.164  0.0980  0.4182 -0.1371
15480SOL    HW147881   7.557   1.823   5.091  0.1045  0.7793 -0.1740
15480SOL    HW247882   7.581   1.894   5.223 -0.5767 -0.8047  0.8376
15481SOL     OW47883   1.188   5.349   5.084  0.7911 -0.2287 -0.1770
15481SOL    HW147884   1.141   5.431   5.097 -1.1736 -1.2145 -0.6017
15481SOL    HW247885   1.202   5.314   5.172 -0.4393 -0.4971 -0.0626
15482SOL     OW47886   3.035   6.516   6.838 -0.0399  0.2422 -0.2146
15482SOL    HW147887   2.954   6.524   6.888 -0.4209  0.5645 -0.8646
15482SOL    HW247888   3.007   6.499   6.748  0.5229  2.2726 -0.8434
15483SOL     OW47889   7.341   6.897   2.125  0.0709  0.6959  0.3645
15483SOL    HW147890   7.277   6.893   2.195 -0.7183  0.1409 -0.3704
15483SOL    HW247891   7.414   6.948   2.162 -1.0636  1.9489  0.9882
15484SOL     OW47892   2.580   2.251   3.811 -0.3861 -0.3194 -0.0899
15484SOL    HW147893   2.554   2.334   3.851 -0.9480 -0.5152 -0.0451
15484SOL    HW247894   2.675   2.246   3.827 -0.1707  0.7435 -0.8937
15485SOL     OW47895   4.054   2.950   9.378 -0.0927  0.1617 -0.3884
15485SOL    HW147896   4.063   2.856   9.395 -0.5240 -0.0801 -1.4530
15485SOL    HW247897   4.071   2.959   9.285 -1.1355  1.0102 -0.5043
15486SOL     OW47898   1.905   6.103  10.353  0.1008  0.3078 -0.3193
15486SOL    HW147899   1.833   6.164  10.336 -0.5716 -0.3105  0.2888
15486SOL    HW247900   1.925   6.114  10.446 -0.7785 -1.1979  0.0702
15487SOL     OW47901   1.700   1.758   1.977  0.1936  0.3864  0.3019
15487SOL    HW147902   1.680   1.745   2.070  2.3882 -1.0529  0.6594
15487SOL    HW247903   1.669   1.846   1.958  0.1484  0.9310  2.5623
15488SOL     OW47904   4.158   2.238   1.928  0.6348 -0.0450  0.1000
15488SOL    HW147905   4.220   2.284   1.871  1.4100 -1.2835 -0.1020
15488SOL    HW247906   4.200   2.153   1.945 -1.0144 -0.9457 -0.0685
15489SOL     OW47907   6.697   2.652   5.905  0.4509 -0.1448 -0.1167
15489SOL    HW147908   6.701   2.556   5.903  0.1500 -0.1660  0.2546
15489SOL    HW247909   6.614   2.673   5.862 -0.5356 -0.1479  1.6714
15490SOL     OW47910   0.275   7.740   1.803 -0.4147  0.3368 -0.3272
15490SOL    HW147911   0.330   7.729   1.725 -1.8930  0.1704 -1.4017
15490SOL    HW247912   0.201   7.793   1.772 -1.6447 -0.7439  0.6501
15491SOL     OW47913   5.910   2.992   4.598 -0.3719 -0.4690  0.0180
15491SOL    HW147914   5.903   3.017   4.690  1.5446  1.4027 -0.2871
15491SOL    HW247915   5.970   2.917   4.598  0.5614  0.2533  0.2386
15492SOL     OW47916   1.279   1.427   5.403 -0.3827 -0.6149  0.3068
15492SOL    HW147917   1.260   1.378   5.324  2.0855  1.4627 -1.7636
15492SOL    HW247918   1.227   1.507   5.396  0.2949 -0.1509  0.4632
15493SOL     OW47919   4.342   3.790   0.820  0.2169  0.1281  0.0149
15493SOL    HW147920   4.431   3.771   0.851 -0.6267 -1.9254  1.3379
15493SOL    HW247921   4.287   3.786   0.898 -1.2104  0.3241 -0.9338
15494SOL     OW47922   0.819   4.515   9.997  0.0603 -0.1775 -0.1509
15494SOL    HW147923   0.872   4.574   9.944  1.2158 -1.8535 -0.9271
15494SOL    HW247924   0.863   4.512  10.082  1.6786 -2.0819 -0.9981
15495SOL     OW47925   5.514   2.056   1.412 -0.1352 -0.0452  0.4402
15495SOL    HW147926   5.536   2.147   1.429  0.5026 -0.0396 -0.3844
15495SOL    HW247927   5.483   2.023   1.497  0.7456  0.6151  1.0414
15496SOL     OW47928   2.595   1.954   7.244  0.3073  0.5961  0.1378
15496SOL    HW147929   2.527   1.913   7.190 -1.8061  3.1377  0.6997
15496SOL    HW247930   2.633   2.020   7.187  2.1745 -0.5757 -0.0542
15497SOL     OW47931   4.788   5.103   1.681 -0.5803  0.0259  0.4244
15497SOL    HW147932   4.766   5.181   1.732 -0.9703 -0.4721  1.0211
15497SOL    HW247933   4.872   5.074   1.717 -0.3927  0.2141  0.1442
15498SOL     OW47934   2.289   3.213  10.993 -0.1796 -0.2499  0.3427
15498SOL    HW147935   2.274   3.140  11.054 -0.1253 -0.6611 -0.1310
15498SOL    HW247936   2.373   3.193  10.951 -0.2706 -0.0259  0.0505
15499SOL     OW47937   2.142   1.289   8.858  0.0546 -0.2078  0.4165
15499SOL    HW147938   2.098   1.302   8.773 -1.1497  0.0342  1.0586
15499SOL    HW247939   2.220   1.345   8.853 -0.2901  0.2226 -0.3246
15500SOL     OW47940   4.090   1.600   0.930  0.0174  0.5008 -0.4112
15500SOL    HW147941   4.047   1.543   0.994 -0.1257 -0.6325 -1.4909
15500SOL    HW247942   4.110   1.543   0.856 -0.8557  2.0150 -1.8802
15501SOL     OW47943   7.525   1.520   0.648 -0.0080 -0.0103 -0.3499
15501SOL    HW147944   7.525   1.429   0.620 -2.9689 -0.4016  0.5427
15501SOL    HW247945   7.481   1.519   0.733 -0.1062  2.2375 -0.3102
15502SOL     OW47946   5.413   0.984   5.077 -0.4336  0.0816  0.1533
15502SOL    HW147947   5.445   1.066   5.114 -0.4413  0.5011 -0.7383
15502SOL    HW247948   5.336   1.010   5.025  0.8467 -0.1160 -1.9667
15503SOL     OW47949   5.242   2.065   0.953 -0.2232  0.3781  0.1792
15503SOL    HW147950   5.251   2.059   1.048  1.6953 -0.2813 -0.0161
15503SOL    HW247951   5.220   1.976   0.926 -0.9543  0.6038 -0.0044
15504SOL     OW47952   0.214   3.838   7.953 -0.6948  0.4097  0.6642
15504SOL    HW147953   0.220   3.788   7.871 -0.1218 -2.4885  2.3419
15504SOL    HW247954   0.294   3.891   7.955  0.1432 -0.7959  0.1242
15505SOL     OW47955   5.716   7.515   1.180 -0.2463  0.1583 -0.1428
15505SOL    HW147956   5.728   7.597   1.132  2.1353 -0.7037 -1.1862
15505SOL    HW247957   5.777   7.521   1.254 -1.7352  0.2413  1.1173
15506SOL     OW47958   2.317   6.132   8.109  0.0318  0.2434  0.2788
15506SOL    HW147959   2.392   6.176   8.149  1.4718 -0.9073 -1.0624
15506SOL    HW247960   2.315   6.045   8.150 -0.4008  0.1624  0.0945
15507SOL     OW47961   0.554   4.895   0.325 -0.3422  0.2299  0.0216
15507SOL    HW147962   0.570   4.902   0.420 -2.5645 -1.3295  0.5782
15507SOL    HW247963   0.635   4.857   0.291  0.7628  1.4308  1.1314
15508SOL     OW47964   1.657   2.831   2.830  0.2254  0.1319  0.1812
15508SOL    HW147965   1.713   2.761   2.864  1.6337  1.3524  0.4501
15508SOL    HW247966   1.631   2.881   2.908 -0.9758 -0.1946  0.0169
15509SOL     OW47967   1.510   2.503   6.818 -0.1513  0.5550 -0.6137
15509SOL    HW147968   1.585   2.559   6.836 -0.1155  0.8697 -1.6798
15509SOL    HW247969   1.451   2.559   6.767  0.4801 -0.7458 -2.8860
15510SOL     OW47970   1.637   7.092   2.376  0.7385  0.5195  0.3834
15510SOL    HW147971   1.686   7.016   2.407  1.3937  1.3582  1.4759
15510SOL    HW247972   1.693   7.167   2.398  0.2924  1.3047 -1.0171
15511SOL     OW47973   5.864   2.154   7.882  0.6393  0.4464 -0.1428
15511SOL    HW147974   5.956   2.176   7.870  0.6486  1.6680  1.8170
15511SOL    HW247975   5.840   2.194   7.965 -1.7982  0.5601 -0.8163
15512SOL     OW47976   4.800   3.686   2.512  0.3021  0.1063  0.3511
15512SOL    HW147977   4.775   3.605   2.558 -0.5310  0.5713  0.7401
15512SOL    HW247978   4.865   3.658   2.447  0.5828 -0.7566  0.9858
15513SOL     OW47979   5.812   4.390   9.163  0.6956  0.2103  0.1197
15513SOL    HW147980   5.820   4.321   9.228 -0.2456 -0.0725 -0.0569
15513SOL    HW247981   5.843   4.469   9.208 -1.5941  0.3733  1.5237
15514SOL     OW47982   6.640   5.043  11.906 -0.3762 -0.3015 -0.6889
15514SOL    HW147983   6.716   4.988  11.886 -0.9365 -1.4523  0.2417
15514SOL    HW247984   6.591   5.048  11.824  1.4600  1.7693 -1.7698
15515SOL     OW47985   3.391   5.915   3.101  0.0856 -0.2765 -0.0049
15515SOL    HW147986   3.378   5.869   3.184 -1.1162  0.9904  0.5578
15515SOL    HW247987   3.390   6.008   3.125  0.3826  0.0962 -1.3590
15516SOL     OW47988   2.428   5.765  11.341  0.0525 -0.0607 -0.1176
15516SOL    HW147989   2.481   5.840  11.314  0.3436  0.0440  0.7236
15516SOL    HW247990   2.373   5.798  11.412 -0.6097 -0.3668 -0.4789
15517SOL     OW47991   4.338   1.870   6.103 -0.2451 -0.2915  0.2812
15517SOL    HW147992   4.340   1.847   6.196 -0.1305  1.3130  0.6997
15517SOL    HW247993   4.362   1.962   6.101  0.3978 -0.4726 -1.4140
15518SOL     OW47994   1.964   5.330   4.418  0.0552  0.6729  0.0745
15518SOL    HW147995   2.001   5.392   4.354 -0.7385  0.1392 -0.9379
15518SOL    HW247996   1.875   5.313   4.386  1.0916 -3.1178 -1.3125
15519SOL     OW47997   5.147   5.845   6.722 -0.3248 -0.7211 -0.3106
15519SOL    HW147998   5.188   5.825   6.806  1.0895  0.0714 -0.7681
15519SOL    HW247999   5.157   5.939   6.713 -0.5793 -0.7825 -1.3104
15520SOL     OW48000   7.241   2.002  11.336  0.0496 -0.1959 -0.0894
15520SOL    HW148001   7.199   2.081  11.303  0.0405  0.2357  0.9254
15520SOL    HW248002   7.253   1.947  11.259  0.5435  1.0131 -0.8989
15521SOL     OW48003   6.098   1.705   1.149 -0.8763  0.1045  0.1505
15521SOL    HW148004   6.191   1.685   1.140 -1.2001 -1.1002 -0.6871
15521SOL    HW248005   6.079   1.687   1.241 -0.6206 -1.2316 -0.0390
15522SOL     OW48006   5.433   0.095   1.002  0.0357 -0.0164  0.3818
15522SOL    HW148007   5.427   0.178   1.049  1.0158  0.5155 -0.3792
15522SOL    HW248008   5.383   0.109   0.922  2.4103  0.8680 -1.0747
15523SOL     OW48009   0.991   4.570   2.859  0.2789  0.0220 -0.1369
15523SOL    HW148010   0.961   4.479   2.870 -0.1389 -0.2009 -2.5517
15523SOL    HW248011   1.082   4.569   2.888 -0.0331 -0.9081  0.8762
15524SOL     OW48012   0.893   3.236   1.255 -0.3456 -0.0319  0.0461
15524SOL    HW148013   0.901   3.142   1.241 -3.7478 -0.3032 -1.1534
15524SOL    HW248014   0.908   3.247   1.349 -1.6516 -2.1013  0.5800
15525SOL     OW48015   1.146   3.655   6.971  0.6058 -0.5066  0.0223
15525SOL    HW148016   1.139   3.656   7.066 -0.3949 -0.0663 -0.0390
15525SOL    HW248017   1.209   3.586   6.952  1.0622 -0.3836  1.0113
15526SOL     OW48018   1.973   3.344   7.395 -0.4268 -0.2176  0.5060
15526SOL    HW148019   1.988   3.438   7.404 -0.5529 -0.3142  1.9317
15526SOL    HW248020   1.886   3.337   7.356 -0.0807  0.2549 -0.3708
15527SOL     OW48021   0.416   4.823   3.088  0.3510 -0.9856  0.0250
15527SOL    HW148022   0.472   4.766   3.142  1.3273  1.3508  1.6816
15527SOL    HW248023   0.331   4.779   3.087  0.9667 -2.3291  1.4824
15528SOL     OW48024   0.569   7.537   8.136  0.2571  0.3884  0.3096
15528SOL    HW148025   0.485   7.581   8.123  0.6507  1.0639 -0.0576
15528SOL    HW248026   0.631   7.592   8.088  0.9053 -0.1010  0.5813
15529SOL     OW48027   4.706   4.792   9.825 -0.6719 -0.5111 -0.4451
15529SOL    HW148028   4.676   4.715   9.873 -2.8989 -0.3648 -1.4604
15529SOL    HW248029   4.789   4.816   9.867 -0.6253 -2.5971  0.8015
15530SOL     OW48030   5.267   3.805   4.084 -0.4234 -0.1895 -0.4053
15530SOL    HW148031   5.210   3.847   4.020  0.5649  0.0549 -1.1534
15530SOL    HW248032   5.355   3.838   4.064  0.2570 -1.8687 -0.4263
15531SOL     OW48033   0.349   0.415  11.763  0.0974  0.4479  0.3611
15531SOL    HW148034   0.359   0.478  11.834  0.6194 -0.3447  0.9995
15531SOL    HW248035   0.309   0.338  11.803  1.1522 -0.3228 -0.0061
15532SOL     OW48036   3.446   6.162   1.599  0.5659 -0.0059  0.0988
15532SOL    HW148037   3.533   6.158   1.559 -0.1259 -0.4856 -1.4520
15532SOL    HW248038   3.420   6.254   1.589  1.4197  0.4584  1.8234
15533SOL     OW48039   6.329   2.592   8.550 -0.4611 -0.3715 -0.4642
15533SOL    HW148040   6.301   2.649   8.622 -2.8818 -0.3262 -1.3336
15533SOL    HW248041   6.287   2.508   8.569  1.6653 -1.4132 -0.1043
15534SOL     OW48042   7.681   6.851  12.193 -0.3293 -0.0538  0.0438
15534SOL    HW148043   7.765   6.869  12.235 -0.6422  0.4081  0.4810
15534SOL    HW248044   7.634   6.797  12.255 -1.1109  1.3017  0.6704
15535SOL     OW48045   3.610   6.853   3.510  0.2129  0.4327  0.0353
15535SOL    HW148046   3.672   6.924   3.492 -0.4352  0.6758 -1.3286
15535SOL    HW248047   3.665   6.777   3.527  0.9058  1.0977  0.8640
15536SOL     OW48048   5.750   7.035  10.836 -0.3512  0.0412 -0.1470
15536SOL    HW148049   5.781   6.979  10.765 -1.5295 -0.9096  0.0648
15536SOL    HW248050   5.662   7.062  10.808  0.2680  1.9879 -0.3498
15537SOL     OW48051   6.884   1.699   2.581  0.7200 -0.2637  0.0896
15537SOL    HW148052   6.897   1.708   2.487  0.1875  0.9394  0.1118
15537SOL    HW248053   6.889   1.788   2.615  1.1278 -0.6964  1.2411
15538SOL     OW48054   6.281   6.568   3.039  0.4891  0.5723 -0.5443
15538SOL    HW148055   6.200   6.589   3.085  1.1239 -0.2901  1.0441
15538SOL    HW248056   6.277   6.473   3.026  1.2080  0.5302 -0.4985
15539SOL     OW48057   7.603   2.072   7.582  0.1422 -0.2003  0.1904
15539SOL    HW148058   7.633   2.024   7.660  0.8753  1.0133  0.6777
15539SOL    HW248059   7.510   2.052   7.576  0.1691 -0.6602  1.1262
15540SOL     OW48060   3.011   7.667   9.313 -0.1084  0.2506 -0.0193
15540SOL    HW148061   3.008   7.591   9.371 -0.3145  0.1882 -0.1102
15540SOL    HW248062   3.100   7.668   9.279  0.1627  0.5766  0.6841
15541SOL     OW48063   3.861   3.355   1.003 -0.2655  0.7199 -0.3611
15541SOL    HW148064   3.883   3.425   0.942  2.0728  1.4406  1.1657
15541SOL    HW248065   3.830   3.400   1.081 -0.4496 -0.0421  0.0163
15542SOL     OW48066   6.708   3.271   1.807 -0.1869  0.0354  0.2641
15542SOL    HW148067   6.799   3.290   1.832  1.0570 -2.7090 -1.5536
15542SOL    HW248068   6.680   3.203   1.868  0.3970 -1.7220 -1.3017
15543SOL     OW48069   5.501   6.267   6.241 -0.2428 -0.4266 -0.0532
15543SOL    HW148070   5.573   6.254   6.179 -0.4075  0.1199 -0.3604
15543SOL    HW248071   5.500   6.361   6.259 -0.6625 -0.4786  0.2145
15544SOL     OW48072   6.558   5.464   5.796  0.0080  0.1620 -0.3393
15544SOL    HW148073   6.637   5.471   5.741  0.3618 -2.4409 -0.3026
15544SOL    HW248074   6.489   5.439   5.735 -0.4367  0.8971 -0.1358
15545SOL     OW48075   6.974   7.285  10.424  0.3297  0.0193  0.3436
15545SOL    HW148076   7.020   7.200  10.426  0.6916  0.2133  0.2698
15545SOL    HW248077   7.042   7.349  10.405 -0.0488  0.2619 -0.2294
15546SOL     OW48078   0.533   0.485   3.366 -0.1075  0.6955  0.7933
15546SOL    HW148079   0.516   0.427   3.292  0.7057  0.7304  0.5676
15546SOL    HW248080   0.584   0.431   3.427  0.6090  1.1411  0.6048
15547SOL     OW48081   3.169   4.951   3.750 -0.0774  0.2400  0.2668
15547SOL    HW148082   3.143   5.041   3.728 -0.1554  0.1391 -0.0559
15547SOL    HW248083   3.134   4.937   3.838 -2.6284 -0.4790 -0.7890
15548SOL     OW48084   2.886   2.097   6.378 -0.2687  0.2291 -0.5486
15548SOL    HW148085   2.861   2.045   6.302 -2.5803 -2.0064  1.5604
15548SOL    HW248086   2.812   2.157   6.391  0.9123  1.8522 -1.0348
15549SOL     OW48087   6.344   3.486  11.024  0.1801  0.3760 -0.5063
15549SOL    HW148088   6.257   3.458  10.998 -0.0752  0.3026  0.3842
15549SOL    HW248089   6.404   3.437  10.968 -0.2883 -1.1682  0.2956
15550SOL     OW48090   1.061   4.719  10.698 -0.1006 -0.1492  0.6230
15550SOL    HW148091   1.058   4.756  10.609  1.4655 -1.8443 -0.1910
15550SOL    HW248092   1.140   4.756  10.737 -1.6710  1.9734  2.0510
15551SOL     OW48093   1.155   1.222   5.841  0.2220  0.4328 -0.1299
15551SOL    HW148094   1.206   1.229   5.921  0.8085 -0.2870 -0.4278
15551SOL    HW248095   1.076   1.176   5.867 -0.4204  1.7770  0.3862
15552SOL     OW48096   4.139   0.769  11.473  0.2028 -0.3088  0.2192
15552SOL    HW148097   4.138   0.791  11.380 -0.5956 -1.8620 -0.1713
15552SOL    HW248098   4.054   0.797  11.505 -0.1945 -1.2825  0.0709
15553SOL     OW48099   1.445   7.895   0.906 -0.7740 -0.7273  0.1265
15553SOL    HW148100   1.475   7.966   0.962 -3.5444 -0.4837  1.5006
15553SOL    HW248101   1.523   7.842   0.889  1.4747  2.7228 -1.2653
15554SOL     OW48102   2.990   5.913  12.095 -0.1928  0.4152 -0.2675
15554SOL    HW148103   2.925   5.961  12.044 -1.8585 -1.4073  0.0056
15554SOL    HW248104   2.960   5.920  12.185 -1.5975 -2.5496 -0.3813
15555SOL     OW48105   2.315   1.449   7.439 -0.1237  0.6013 -0.2613
15555SOL    HW148106   2.278   1.423   7.355  0.5419  0.2487 -0.4512
15555SOL    HW248107   2.239   1.468   7.494 -0.5804 -0.0329 -0.6677
15556SOL     OW48108   3.526   2.145   9.256  0.0914  0.2804  0.5405
15556SOL    HW148109   3.525   2.240   9.257 -0.2266  0.3024 -0.4960
15556SOL    HW248110   3.521   2.120   9.349 -1.0340  1.2652  0.7773
15557SOL     OW48111   2.340   3.433  10.401  0.0311  0.3038  0.1490
15557SOL    HW148112   2.339   3.338  10.393  2.0691  0.1979  0.4696
15557SOL    HW248113   2.269   3.454  10.461 -0.1348 -1.0575  0.4507
15558SOL     OW48114   5.258   6.418   7.382 -0.1345  0.0898 -0.1498
15558SOL    HW148115   5.196   6.346   7.370 -0.6386  0.5696 -0.4349
15558SOL    HW248116   5.253   6.468   7.300  1.9363 -0.8540 -0.9354
15559SOL     OW48117   3.630   7.263  12.163 -0.6003  0.3167  0.0345
15559SOL    HW148118   3.709   7.313  12.186  0.1104 -0.5551 -0.4467
15559SOL    HW248119   3.651   7.173  12.186 -2.3122  0.3471  2.0329
15560SOL     OW48120   3.359   2.858   4.420 -0.1115 -0.2435 -0.0529
15560SOL    HW148121   3.444   2.862   4.464 -0.6868  1.1388  1.0185
15560SOL    HW248122   3.351   2.941   4.374 -0.4150 -0.8262 -1.0840
15561SOL     OW48123   5.607   4.956  10.345  0.3105  0.0761  0.0242
15561SOL    HW148124   5.593   5.048  10.366 -0.1211  0.7220 -2.6630
15561SOL    HW248125   5.521   4.915  10.356 -0.3303  0.7728 -1.9008
15562SOL     OW48126   1.132   3.360   3.246  0.2093  0.0474 -0.1465
15562SOL    HW148127   1.056   3.414   3.268  1.2189  1.5262 -0.0877
15562SOL    HW248128   1.203   3.424   3.233  1.1878 -1.2109 -1.2452
15563SOL     OW48129   3.872   2.061  10.007  0.3340 -0.3542  0.2246
15563SOL    HW148130   3.829   2.063   9.921 -1.5453  2.4292  1.0887
15563SOL    HW248131   3.818   2.000  10.058 -0.4838  0.4178  0.2998
15564SOL     OW48132   2.661   5.621   7.546  0.2312  0.0563  0.2817
15564SOL    HW148133   2.596   5.664   7.602  0.6331  1.0130  0.0219
15564SOL    HW248134   2.661   5.672   7.465 -1.4911 -2.2198 -1.2690
15565SOL     OW48135   3.871   0.404  11.559  0.0452  0.4732 -0.4657
15565SOL    HW148136   3.911   0.345  11.494 -1.0758 -0.7810 -0.0526
15565SOL    HW248137   3.946   0.441  11.607  0.7647 -0.7721 -0.5908
15566SOL     OW48138   7.207   0.741   9.166  0.3966  0.3166  1.0815
15566SOL    HW148139   7.256   0.796   9.106  0.7949  0.6973  1.7361
15566SOL    HW248140   7.156   0.682   9.110 -0.5041  1.7358  0.3560
15567SOL     OW48141   3.141   1.122   5.893 -0.7770 -0.2824  0.0840
15567SOL    HW148142   3.127   1.031   5.870  0.3918 -0.2385 -0.9296
15567SOL    HW248143   3.227   1.122   5.937  0.7810  0.6851 -2.7140
15568SOL     OW48144   6.497   1.546   2.798 -0.0834 -0.2309 -0.0073
15568SOL    HW148145   6.561   1.609   2.829 -3.0567  1.9488  2.2713
15568SOL    HW248146   6.498   1.477   2.864  0.8195 -0.9559 -0.7404
15569SOL     OW48147   2.902   2.293  12.309  0.7736 -0.3605  0.1432
15569SOL    HW148148   2.824   2.320  12.260  1.0570  1.6245  0.6980
15569SOL    HW248149   2.928   2.211  12.268 -0.9020 -0.4469 -0.8539
15570SOL     OW48150   7.625   2.441   1.352 -0.0370  0.4269  0.3954
15570SOL    HW148151   7.586   2.499   1.286  1.0782 -0.7609 -1.3724
15570SOL    HW248152   7.562   2.443   1.425 -1.9245  0.8776 -1.1479
15571SOL     OW48153   6.584   3.962   7.215 -0.3903  0.3195  0.0827
15571SOL    HW148154   6.530   3.887   7.192  0.5995 -1.5386  3.1470
15571SOL    HW248155   6.599   3.953   7.310  1.8462  3.0199  0.1323
15572SOL     OW48156   7.831   5.611   2.340 -0.0370 -0.6028  0.2126
15572SOL    HW148157   7.833   5.670   2.266  0.6575 -0.0705  0.6428
15572SOL    HW248158   7.743   5.619   2.376  0.0414  0.1479  0.2454
15573SOL     OW48159   4.858   3.163   6.887  0.2912  0.3228 -0.4100
15573SOL    HW148160   4.889   3.232   6.945  1.0278 -0.7480  0.5345
15573SOL    HW248161   4.773   3.193   6.856  0.1880  1.2330  0.7070
15574SOL     OW48162   0.825   7.258   4.097  0.3548 -0.2416  0.2423
15574SOL    HW148163   0.863   7.173   4.072 -0.2879 -0.1786 -1.0836
15574SOL    HW248164   0.730   7.242   4.096  0.2820  0.0128  1.8809
15575SOL     OW48165   6.276   2.942  11.694 -0.3112  0.0317  0.3868
15575SOL    HW148166   6.235   2.858  11.674 -0.9486  0.6347 -0.9779
15575SOL    HW248167   6.203   3.000  11.719 -0.1733  0.7685 -0.8434
15576SOL     OW48168   3.382   6.980   1.380  0.2206 -0.1981 -0.0151
15576SOL    HW148169   3.367   6.889   1.403  0.1541  0.0231  0.8802
15576SOL    HW248170   3.294   7.015   1.361  0.0236  0.0826  1.2816
15577SOL     OW48171   0.689   3.060   5.772  0.4975 -0.1341 -0.0355
15577SOL    HW148172   0.674   2.994   5.839 -2.5919  0.2922 -0.1769
15577SOL    HW248173   0.613   3.118   5.777  0.5520  0.4405 -3.2804
15578SOL     OW48174   2.527   7.232   0.605 -0.7135  0.1663 -0.7056
15578SOL    HW148175   2.559   7.311   0.649 -2.0860 -0.7293  2.0766
15578SOL    HW248176   2.593   7.166   0.624 -0.5334  0.1293 -1.4052
15579SOL     OW48177   2.037   2.056  11.017  0.2444 -0.3664  0.3121
15579SOL    HW148178   2.115   2.039  10.964  0.0638  0.1993 -0.1413
15579SOL    HW248179   2.029   1.979  11.073 -0.6310 -1.8740 -1.7832
15580SOL     OW48180   7.877   6.625  10.027 -0.2449 -0.0146  0.6076
15580SOL    HW148181   7.834   6.549   9.987  1.1163  0.4375 -1.9654
15580SOL    HW248182   7.960   6.590  10.060  0.3726  0.3162 -0.5598
15581SOL     OW48183   2.272   6.748  10.836 -0.3104 -0.3786  0.2024
15581SOL    HW148184   2.302   6.715  10.751 -0.7755  0.3007 -0.2416
15581SOL    HW248185   2.347   6.796  10.871 -0.5110  0.3975 -0.4073
15582SOL     OW48186   0.531   7.056   1.772 -0.0327  0.3743  0.2159
15582SOL    HW148187   0.502   7.069   1.682  2.9934  0.2899 -0.8821
15582SOL    HW248188   0.602   6.992   1.766  2.0550  2.2894  2.2653
15583SOL     OW48189   0.650   7.887   0.474  0.0229  0.2791 -0.2926
15583SOL    HW148190   0.572   7.880   0.528  0.0169 -1.1920 -0.4343
15583SOL    HW248191   0.619   7.876   0.384  0.2288  1.0493 -0.4618
15584SOL     OW48192   6.421   2.997  12.375 -0.0115 -0.2228 -0.1877
15584SOL    HW148193   6.353   2.994  12.308  1.1267  1.1100 -1.4664
15584SOL    HW248194   6.414   2.913  12.420 -1.5524 -0.6931 -1.2136
15585SOL     OW48195   3.502   3.304   7.669 -0.0681  0.0180 -0.7269
15585SOL    HW148196   3.431   3.361   7.700  0.2695  0.2608 -0.3772
15585SOL    HW248197   3.475   3.216   7.695  0.4151  0.2633  0.7005
15586SOL     OW48198   7.408   4.171  10.880  0.1369 -0.0572  0.3531
15586SOL    HW148199   7.425   4.193  10.788 -2.2420  0.0761 -0.1198
15586SOL    HW248200   7.393   4.077  10.880  1.1422 -0.2289  0.8049
15587SOL     OW48201   2.177   6.778   4.681  0.0999  0.4400 -0.1157
15587SOL    HW148202   2.210   6.690   4.660 -1.1561  0.0767 -0.6620
15587SOL    HW248203   2.256   6.829   4.697  0.9694 -0.3283 -1.6652
15588SOL     OW48204   7.053   5.937   3.987 -0.0563  0.2383 -0.0511
15588SOL    HW148205   7.088   5.913   3.902  0.2334 -0.0147  0.1360
15588SOL    HW248206   7.051   6.033   3.988 -1.2867  0.2422 -0.8384
15589SOL     OW48207   5.306   4.577  11.992 -0.1249  0.3675 -0.4907
15589SOL    HW148208   5.354   4.495  12.004  0.3040  0.5393 -1.0300
15589SOL    HW248209   5.284   4.579  11.899 -1.7897 -0.0387 -0.1458
15590SOL     OW48210   0.472   6.561   0.077  0.1227 -0.2923  0.0404
15590SOL    HW148211   0.537   6.572   0.146  0.4695 -1.3145 -0.1153
15590SOL    HW248212   0.512   6.599  -0.001 -0.3716  1.1049  0.4247
15591SOL     OW48213   7.623   2.780   6.288 -0.0371  0.5355  0.6099
15591SOL    HW148214   7.676   2.847   6.247 -0.7811  0.3306 -0.7443
15591SOL    HW248215   7.533   2.801   6.263 -0.4880  0.1690  1.8240
15592SOL     OW48216   4.508   5.045   2.445  0.3373  0.5666 -0.1210
15592SOL    HW148217   4.581   5.049   2.383  0.2368 -0.0492 -0.2774
15592SOL    HW248218   4.528   5.114   2.509  1.1074  0.3456 -0.1065
15593SOL     OW48219   6.792   7.245   4.435  1.0620  0.2159 -0.0021
15593SOL    HW148220   6.784   7.334   4.400  1.3992 -0.1756 -1.1279
15593SOL    HW248221   6.714   7.200   4.403  2.3277 -0.6914 -2.0197
15594SOL     OW48222   4.107   6.142  12.290 -0.0285 -0.4083  0.0404
15594SOL    HW148223   4.178   6.105  12.341 -0.4819 -0.2563  0.7929
15594SOL    HW248224   4.078   6.219  12.339  0.0199  0.1765 -0.8256
15595SOL     OW48225   0.928   3.421   4.126  0.4967  0.5312 -0.2846
15595SOL    HW148226   0.975   3.442   4.045  0.5248  1.3571 -0.0715
15595SOL    HW248227   0.996   3.389   4.185  0.8644  1.8908  0.0808
15596SOL     OW48228   3.223   1.206   4.209  0.0361 -0.3945  0.0317
15596SOL    HW148229   3.286   1.143   4.175  1.2460 -0.1890  1.7391
15596SOL    HW248230   3.229   1.281   4.150  0.5906 -0.8117 -0.4503
15597SOL     OW48231   7.289   6.165   0.571 -0.4508 -0.3081 -0.0220
15597SOL    HW148232   7.211   6.175   0.627  0.1367 -1.0024  0.9512
15597SOL    HW248233   7.363   6.179   0.631  0.2042  2.0211 -1.2594
15598SOL     OW48234   2.662   2.318  12.165 -0.3923 -0.4657  0.0686
15598SOL    HW148235   2.586   2.283  12.212  0.3847  0.4456  2.1367
15598SOL    HW248236   2.649   2.291  12.074 -3.6430  0.4174  0.1452
15599SOL     OW48237   6.897   3.352   5.632  0.4776  0.4265 -0.2612
15599SOL    HW148238   6.963   3.401   5.682  0.9454 -1.7123  1.3342
15599SOL    HW248239   6.947   3.309   5.563  0.5510 -0.0973  0.1127
15600SOL     OW48240   2.985   7.282   4.752 -0.2353  0.0315 -0.3703
15600SOL    HW148241   2.944   7.224   4.688  0.7400  0.4112 -1.3647
15600SOL    HW248242   3.068   7.239   4.773 -0.0936  0.4262 -0.1277
15601SOL     OW48243   0.278   7.573  11.776  0.3109 -0.4419 -0.1216
15601SOL    HW148244   0.360   7.524  11.781  2.4558  2.1818 -4.0163
15601SOL    HW248245   0.244   7.552  11.689  0.1954  3.0846 -1.0487
15602SOL     OW48246   5.186   3.352   7.803 -0.2037  0.2485  0.0674
15602SOL    HW148247   5.164   3.259   7.792 -3.2419  0.6457  1.7770
15602SOL    HW248248   5.113   3.398   7.762 -0.6558  1.8077  2.4512
15603SOL     OW48249   3.440   1.364   7.083  0.7098  0.2867  0.0329
15603SOL    HW148250   3.403   1.284   7.122 -0.4098  0.6201 -0.3048
15603SOL    HW248251   3.451   1.424   7.157  0.7505  0.1191  0.1630
15604SOL     OW48252   6.757   1.446   7.067 -0.0538 -0.1562 -0.5022
15604SOL    HW148253   6.670   1.484   7.054 -0.3294 -0.3091  0.7592
15604SOL    HW248254   6.814   1.497   7.009 -0.7026  1.0557 -0.1197
15605SOL     OW48255   6.861   7.056   5.595 -0.3544  0.2950 -0.1755
15605SOL    HW148256   6.792   7.005   5.637 -1.8628  2.3918  0.0182
15605SOL    HW248257   6.922   7.077   5.666  0.0499 -0.7822 -0.1740
15606SOL     OW48258   5.500   7.588  10.898  0.3679  0.0243 -0.5254
15606SOL    HW148259   5.476   7.662  10.954 -3.2935 -0.9754 -0.5520
15606SOL    HW248260   5.505   7.513  10.957  0.8569 -0.3015 -0.9605
15607SOL     OW48261   5.444   5.445   7.697 -0.0775 -0.0872 -0.2687
15607SOL    HW148262   5.417   5.357   7.671 -1.3623  0.0927  0.3988
15607SOL    HW248263   5.491   5.479   7.621 -2.4872 -0.1018 -1.8580
15608SOL     OW48264   7.165   6.673  12.401  0.7977  0.3022 -0.0902
15608SOL    HW148265   7.081   6.635  12.375  0.8626 -0.7271  1.0744
15608SOL    HW248266   7.142   6.752  12.450  0.5641  0.5510 -0.5920
15609SOL     OW48267   4.593   1.239   5.886  0.2705  0.1168 -0.1547
15609SOL    HW148268   4.572   1.186   5.963  1.4910 -1.5410 -0.9060
15609SOL    HW248269   4.669   1.290   5.912 -0.4540  0.9936  0.3201
15610SOL     OW48270   2.381   1.783   7.836 -0.3667  0.4958  0.7998
15610SOL    HW148271   2.302   1.838   7.839  0.2874  1.6478 -1.3676
15610SOL    HW248272   2.377   1.740   7.751  0.6724 -0.4817  1.2321
15611SOL     OW48273   6.612   0.941   2.066  0.4736 -0.0707  0.7891
15611SOL    HW148274   6.572   1.004   2.126 -0.6234 -0.6552  0.7065
15611SOL    HW248275   6.566   0.859   2.084  0.2404 -0.2983 -0.7332
15612SOL     OW48276   5.846   4.583  10.971  0.2022 -0.1217 -0.3687
15612SOL    HW148277   5.815   4.623  11.053  1.9690 -0.0422  0.2957
15612SOL    HW248278   5.766   4.554  10.928 -0.7870 -0.2054  1.4019
15613SOL     OW48279   3.242   1.131  10.641 -0.3159  0.0210  0.1645
15613SOL    HW148280   3.194   1.208  10.670  0.3406  0.0193  1.3206
15613SOL    HW248281   3.192   1.098  10.567 -1.4122  0.7038  0.5770
15614SOL     OW48282   1.197   6.722   3.644  0.3225  0.2247  0.1245
15614SOL    HW148283   1.202   6.638   3.599  1.7019  0.0779  0.4917
15614SOL    HW248284   1.117   6.763   3.611 -0.3921 -1.2277 -0.0373
15615SOL     OW48285   0.617   5.252   1.844 -0.0855 -0.0749  0.3961
15615SOL    HW148286   0.609   5.303   1.924  0.6381  0.5725  0.0819
15615SOL    HW248287   0.669   5.176   1.868 -0.3603 -0.1767  0.6648
15616SOL     OW48288   1.323   4.517  10.628 -0.2054  0.1362 -0.4217
15616SOL    HW148289   1.318   4.567  10.710  0.1002  0.8054 -0.7999
15616SOL    HW248290   1.231   4.497  10.607 -0.4850  1.9031 -1.0599
15617SOL     OW48291   6.448   5.257   9.540  0.3056 -0.1049 -0.2207
15617SOL    HW148292   6.424   5.345   9.510 -0.6527 -0.0036  0.7594
15617SOL    HW248293   6.406   5.198   9.477  1.0340  0.1219 -0.9377
15618SOL     OW48294   6.585   7.858  10.575  1.0301  0.4184  0.0409
15618SOL    HW148295   6.587   7.762  10.577 -0.2047  0.3281 -1.1554
15618SOL    HW248296   6.614   7.880  10.486 -3.0429  0.8682 -1.3677
15619SOL     OW48297   5.336   3.027   8.067  0.6186 -0.0521  0.3092
15619SOL    HW148298   5.369   3.113   8.042  2.6701 -1.1440 -1.0284
15619SOL    HW248299   5.410   2.985   8.110  0.3065 -1.8382 -0.8169
15620SOL     OW48300   6.665   1.204   5.008  0.1003 -0.0126  0.2573
15620SOL    HW148301   6.597   1.241   4.951  1.7857  2.2029 -0.4351
15620SOL    HW248302   6.647   1.243   5.094  0.9828  1.2990 -0.1307
15621SOL     OW48303   4.969   7.253   3.806 -0.1381 -0.5519 -0.1735
15621SOL    HW148304   5.018   7.179   3.770  0.6031  0.6683 -1.8208
15621SOL    HW248305   5.034   7.303   3.855 -0.5136 -0.6553  0.4511
15622SOL     OW48306   5.606   5.475   7.401  0.0084 -0.0144 -0.0633
15622SOL    HW148307   5.581   5.513   7.316  0.0545  0.3558  0.0872
15622SOL    HW248308   5.600   5.380   7.387 -2.8525  0.0379  0.3765
15623SOL     OW48309   3.470   2.438   0.632 -0.3399 -0.1322  0.2611
15623SOL    HW148310   3.565   2.443   0.623 -0.3055 -0.5036  0.4191
15623SOL    HW248311   3.456   2.406   0.721 -0.6309  1.0469  0.6614
15624SOL     OW48312   2.453   4.217   7.204  0.4772  0.5484  0.5365
15624SOL    HW148313   2.507   4.187   7.130  0.5746  1.8384  0.0541
15624SOL    HW248314   2.489   4.302   7.227 -2.4262  2.3603 -1.0094
15625SOL     OW48315   5.843   3.092  11.310 -0.0388 -0.1765 -0.5362
15625SOL    HW148316   5.912   3.038  11.270  0.7718  1.3971 -1.3486
15625SOL    HW248317   5.778   3.103  11.240 -0.4976 -0.5822 -0.1791
15626SOL     OW48318   1.866   1.963   1.535 -0.1191  0.3677 -0.0544
15626SOL    HW148319   1.799   1.939   1.599  2.7218 -2.4639  2.2314
15626SOL    HW248320   1.859   1.896   1.467  0.0177  0.4061 -0.1067
15627SOL     OW48321   2.587   5.291   6.511  0.7314  0.5309  0.3821
15627SOL    HW148322   2.602   5.351   6.584 -0.1052 -0.2166  1.1901
15627SOL    HW248323   2.509   5.242   6.536  0.4729  0.2041 -0.9891
15628SOL     OW48324   1.254   3.102  10.626  0.1847  0.4002  0.4848
15628SOL    HW148325   1.209   3.179  10.661  0.3308  0.2953  0.9171
15628SOL    HW248326   1.253   3.114  10.531  0.9133  1.3193  0.5853
15629SOL     OW48327   5.551   6.185   1.525  0.6368 -0.0349  0.6081
15629SOL    HW148328   5.510   6.166   1.609 -0.6927  0.4890  0.1179
15629SOL    HW248329   5.478   6.180   1.462  1.2022  1.5919 -0.2126
15630SOL     OW48330   5.342   2.363   1.065 -0.1797 -0.1994 -0.0443
15630SOL    HW148331   5.315   2.286   1.115 -1.1312  0.4688  0.4950
15630SOL    HW248332   5.345   2.434   1.129  2.2777 -0.0617 -0.1919
15631SOL     OW48333   6.986   6.580   4.024 -0.2159 -0.0810  0.4847
15631SOL    HW148334   6.918   6.529   3.981  1.0403 -0.8586 -0.6843
15631SOL    HW248335   6.974   6.669   3.991 -0.0098 -0.4329 -0.5687
15632SOL     OW48336   0.182   4.224   4.437  0.1625  0.4774 -0.1536
15632SOL    HW148337   0.110   4.286   4.442  0.2512  0.5436  0.3595
15632SOL    HW248338   0.140   4.138   4.442  0.1666  0.5181  1.1327
15633SOL     OW48339   3.217   3.445   9.014 -0.2992  0.2106  0.0173
15633SOL    HW148340   3.242   3.357   8.985 -0.2996  0.3013 -0.2631
15633SOL    HW248341   3.232   3.500   8.937  0.7428  0.6398  0.5106
15634SOL     OW48342   7.542   6.697   1.143 -0.0485 -0.1961 -0.0738
15634SOL    HW148343   7.560   6.605   1.121 -1.8210 -0.2024 -1.8412
15634SOL    HW248344   7.579   6.746   1.069  0.6075  0.5194  0.7080
15635SOL     OW48345   6.237   0.619   5.733  0.5774 -0.0010 -0.0358
15635SOL    HW148346   6.207   0.562   5.662  0.0054  0.8250 -0.4699
15635SOL    HW248347   6.292   0.562   5.787 -0.9827 -1.3239  0.2449
15636SOL     OW48348   5.136   7.092  11.821  0.2685 -0.6094  0.4643
15636SOL    HW148349   5.212   7.122  11.871 -0.1913  1.5696 -0.0747
15636SOL    HW248350   5.158   7.001  11.798  1.8989 -0.6197  1.8300
15637SOL     OW48351   1.988   4.221  10.442 -0.3406 -0.3160  0.2414
15637SOL    HW148352   2.052   4.157  10.411 -2.1486 -1.5721 -1.1723
15637SOL    HW248353   1.940   4.175  10.511 -0.8843 -0.0663  0.0366
15638SOL     OW48354   2.035   4.535   0.377 -0.0809  0.2216 -0.0180
15638SOL    HW148355   1.978   4.582   0.315 -0.7274 -1.1551 -0.5102
15638SOL    HW248356   2.009   4.568   0.463 -1.0766  0.2237 -0.3003
15639SOL     OW48357   1.720   3.317   9.309  0.4383  0.0818 -0.0896
15639SOL    HW148358   1.740   3.384   9.244  0.7670  0.1602  0.0916
15639SOL    HW248359   1.631   3.337   9.338  0.3824  0.1918 -0.3341
15640SOL     OW48360   2.136   1.920   7.794  0.0456 -0.0405 -0.4236
15640SOL    HW148361   2.078   1.972   7.849 -0.4206 -0.4763 -0.4895
15640SOL    HW248362   2.084   1.843   7.771  0.1091  0.2993 -1.7577
15641SOL     OW48363   3.606   0.670   3.695  0.6076 -0.2429 -0.4384
15641SOL    HW148364   3.582   0.580   3.671  0.7739 -0.5673  0.5402
15641SOL    HW248365   3.549   0.690   3.770  0.7382  0.3815 -0.5041
15642SOL     OW48366   6.079   4.626   1.859 -0.7129  0.4376 -0.9996
15642SOL    HW148367   6.133   4.698   1.891 -1.2665  0.4567 -0.0737
15642SOL    HW248368   6.140   4.555   1.842 -0.4888  0.0651  1.1502
15643SOL     OW48369   4.894   2.750   6.141  0.3062 -0.4673 -0.5406
15643SOL    HW148370   4.823   2.774   6.200  0.7020  0.6294 -0.4902
15643SOL    HW248371   4.973   2.750   6.196  1.1318  3.1257 -1.4299
15644SOL     OW48372   6.503   3.672  10.139  0.2979 -0.9797  0.1443
15644SOL    HW148373   6.569   3.712  10.083 -0.2506 -0.5794 -0.2191
15644SOL    HW248374   6.550   3.601  10.183  0.9906 -0.6513 -0.0446
15645SOL     OW48375   5.412   5.275   0.170  0.1616 -0.6723  0.4344
15645SOL    HW148376   5.487   5.216   0.168 -0.2082 -1.1414 -0.0957
15645SOL    HW248377   5.336   5.216   0.173 -0.2208 -0.2279 -0.2644
15646SOL     OW48378   2.339   3.856   8.128  0.7225  0.2380  0.2715
15646SOL    HW148379   2.341   3.784   8.065 -1.1357 -0.6316  1.1100
15646SOL    HW248380   2.412   3.838   8.187  0.4431 -0.8427  0.3132
15647SOL     OW48381   5.215   3.175  11.529 -0.4821 -0.1870 -0.1292
15647SOL    HW148382   5.159   3.132  11.464  0.3629 -1.6321  0.0589
15647SOL    HW248383   5.278   3.108  11.553  0.7264  1.1064  0.3850
15648SOL     OW48384   4.291   6.321   6.303  0.5066  0.0778  0.2025
15648SOL    HW148385   4.328   6.238   6.273  2.3140  1.0338 -0.3723
15648SOL    HW248386   4.314   6.326   6.396  0.6409  0.0620  0.1697
15649SOL     OW48387   7.589   3.269   4.888  0.2545 -0.0525  0.3871
15649SOL    HW148388   7.670   3.235   4.849  0.0165  0.5016 -0.6319
15649SOL    HW248389   7.526   3.198   4.877  0.8376 -0.9132  2.1522
15650SOL     OW48390   2.100   3.411   8.668 -0.3090 -0.5334  0.1279
15650SOL    HW148391   2.046   3.431   8.591  0.4823 -1.0971 -0.5943
15650SOL    HW248392   2.158   3.341   8.639  1.6541  0.8480  0.4761
15651SOL     OW48393   3.821   2.315   7.520  0.2916 -0.4910  0.1477
15651SOL    HW148394   3.907   2.282   7.546  0.5974  1.2982  1.6318
15651SOL    HW248395   3.759   2.260   7.567  0.6507 -1.0958 -0.0740
15652SOL     OW48396   0.308   5.476  10.575 -0.0266 -0.7322  0.1419
15652SOL    HW148397   0.229   5.453  10.524  0.5281 -0.3017 -0.9468
15652SOL    HW248398   0.371   5.408  10.551  0.2787 -0.4519  0.1590
15653SOL     OW48399   1.795   2.051   7.645 -0.6770 -0.0000 -0.2923
15653SOL    HW148400   1.869   2.110   7.635  0.4961 -1.7705 -3.5381
15653SOL    HW248401   1.742   2.065   7.567 -2.7720 -0.2079  0.9983
15654SOL     OW48402   3.580   2.500   1.116 -0.2463  0.1628  0.1051
15654SOL    HW148403   3.653   2.443   1.141 -0.6764 -0.0182  1.0277
15654SOL    HW248404   3.505   2.466   1.166 -1.0373  0.1698 -1.0256
15655SOL     OW48405   4.157   1.403   1.123  0.2548 -0.3423 -0.1310
15655SOL    HW148406   4.073   1.359   1.115  1.1639 -2.3688  0.8247
15655SOL    HW248407   4.221   1.340   1.090  1.3209  1.7913 -2.4598
15656SOL     OW48408   5.907   5.797   5.825  0.2159  0.6788  0.2425
15656SOL    HW148409   5.920   5.854   5.749  0.7121 -0.7626 -0.7901
15656SOL    HW248410   5.816   5.767   5.816 -0.2689  1.7840  1.1590
15657SOL     OW48411   0.914   4.793   1.191 -0.4360  0.0644  0.5239
15657SOL    HW148412   0.958   4.736   1.128 -1.7501 -0.1258 -0.2390
15657SOL    HW248413   0.835   4.823   1.147 -1.6175 -0.3962  2.1956
15658SOL     OW48414   2.327   1.142   4.470 -0.2148 -0.6229  0.1524
15658SOL    HW148415   2.333   1.181   4.557  1.9354 -0.7025  0.0982
15658SOL    HW248416   2.371   1.058   4.479 -0.2519 -0.7737 -0.9467
15659SOL     OW48417   5.159   2.418   8.519  0.0028 -0.4528 -0.5361
15659SOL    HW148418   5.189   2.336   8.559  0.2324  0.6733  1.7668
15659SOL    HW248419   5.227   2.439   8.454  0.5336 -1.4840 -0.3430
15660SOL     OW48420   2.380   2.240  11.975  0.4047 -0.2890 -0.2514
15660SOL    HW148421   2.379   2.144  11.977 -3.0563 -0.3843  0.6031
15660SOL    HW248422   2.327   2.263  11.899  0.4297  0.9123  0.0745
15661SOL     OW48423   2.578   6.233   4.126 -0.2571 -0.0723  0.0250
15661SOL    HW148424   2.549   6.211   4.037 -1.1156 -0.0211  0.2774
15661SOL    HW248425   2.672   6.220   4.125 -0.0565  1.1861 -1.2835
15662SOL     OW48426   4.035   4.114  10.486  0.0795  0.4606  0.2324
15662SOL    HW148427   4.005   4.198  10.449 -0.2657  0.6911  1.0243
15662SOL    HW248428   4.017   4.051  10.416  1.4929  1.2132 -0.8713
15663SOL     OW48429   7.140   0.192   3.229  0.3393  0.5289  0.5681
15663SOL    HW148430   7.076   0.123   3.248  0.6684  0.0550 -0.0269
15663SOL    HW248431   7.223   0.146   3.218  0.3784  0.8904 -0.8607
15664SOL     OW48432   4.091   4.777  11.729  0.4667 -0.4093 -0.4293
15664SOL    HW148433   4.044   4.738  11.803 -0.3419  0.9475 -0.1758
15664SOL    HW248434   4.181   4.745  11.738  0.2551 -0.7189  0.8364
15665SOL     OW48435   2.135   3.735   0.728 -0.0683 -0.1892 -0.3045
15665SOL    HW148436   2.056   3.717   0.779 -0.2186 -0.4333 -0.6276
15665SOL    HW248437   2.121   3.692   0.644 -0.7848  2.0208 -1.4074
15666SOL     OW48438   1.689   1.510   6.221  0.1595 -0.7487  0.2040
15666SOL    HW148439   1.718   1.553   6.141 -0.4348 -0.7917 -0.0436
15666SOL    HW248440   1.659   1.423   6.192 -1.9877 -0.0484  0.1102
15667SOL     OW48441   2.617   6.601   2.190 -0.0034  0.9362 -0.2345
15667SOL    HW148442   2.663   6.684   2.205 -2.1515  1.7488  2.8232
15667SOL    HW248443   2.534   6.626   2.151 -0.2453  0.1180 -0.2723
15668SOL     OW48444   3.755   4.435  11.891  0.3676  0.3017  0.5014
15668SOL    HW148445   3.711   4.507  11.936 -0.8107 -0.1354  0.1099
15668SOL    HW248446   3.791   4.381  11.961 -0.8719 -0.0140  0.9293
15669SOL     OW48447   1.878   1.662   7.567  0.3706 -0.0096 -0.3533
15669SOL    HW148448   1.841   1.589   7.518  0.1760  0.6652 -1.2405
15669SOL    HW248449   1.849   1.740   7.520  0.7471  0.6353  0.4549
15670SOL     OW48450   5.037   1.728  11.700  0.6370 -0.8136  0.0103
15670SOL    HW148451   5.026   1.639  11.732 -0.9864 -1.0920 -1.1744
15670SOL    HW248452   5.018   1.723  11.606 -0.5291  0.9291  0.0980
15671SOL     OW48453   7.623   5.958   3.374 -0.4538  0.3162 -0.3158
15671SOL    HW148454   7.671   5.969   3.456  0.4222  2.5840 -1.0462
15671SOL    HW248455   7.630   5.864   3.355  3.0106  0.3367  0.0780
15672SOL     OW48456   6.824   4.180  12.394 -0.3311 -0.2103  0.1444
15672SOL    HW148457   6.851   4.125  12.320 -0.1809  0.0511  0.0050
15672SOL    HW248458   6.842   4.126  12.471 -2.6518 -1.4359 -0.0857
15673SOL     OW48459   1.031   7.537   3.108  0.5731  0.0340 -0.0138
15673SOL    HW148460   0.965   7.496   3.164  1.3994 -0.3488  0.7132
15673SOL    HW248461   1.106   7.551   3.166  1.2274  0.2142 -0.8839
15674SOL     OW48462   3.331   5.698  12.006  0.5911 -0.3572 -0.7204
15674SOL    HW148463   3.359   5.623  12.059 -1.0990 -1.1763 -0.9395
15674SOL    HW248464   3.413   5.735  11.974  1.5803 -0.8259  1.1017
15675SOL     OW48465   6.656   2.045  10.590 -0.9266  0.3806 -0.6790
15675SOL    HW148466   6.710   2.056  10.512 -0.6965 -0.8473 -0.7146
15675SOL    HW248467   6.689   2.111  10.651  1.8965 -1.4539 -0.0217
15676SOL     OW48468   4.122   2.171   0.215  0.0379  0.3632  0.0821
15676SOL    HW148469   4.027   2.181   0.210  0.0539  0.2365 -0.6011
15676SOL    HW248470   4.136   2.078   0.231  0.0430  0.4138  0.3739
15677SOL     OW48471   6.732   0.928   3.305  0.0732 -0.0022  0.0768
15677SOL    HW148472   6.763   0.846   3.345 -0.2345  1.0442  2.6922
15677SOL    HW248473   6.658   0.954   3.360 -0.5909  1.4509 -1.4382
15678SOL     OW48474   5.949   0.896  11.886  1.1013 -0.6213  0.4287
15678SOL    HW148475   5.890   0.821  11.886  1.2642 -0.7707  1.4332
15678SOL    HW248476   5.899   0.967  11.846 -0.0334 -0.5619  1.8646
15679SOL     OW48477   5.223   0.846   7.957  0.6639 -0.1469  0.8600
15679SOL    HW148478   5.235   0.751   7.961  1.0368 -0.1964 -0.7442
15679SOL    HW248479   5.207   0.864   7.864  0.0027  1.2997  1.2304
15680SOL     OW48480   3.966   3.524   8.185  0.1215 -0.0708 -0.1090
15680SOL    HW148481   4.033   3.503   8.250  2.1430 -0.1406 -2.0865
15680SOL    HW248482   3.924   3.440   8.167 -1.5117  0.1925  2.0973
15681SOL     OW48483   6.068   4.963  10.902  0.2706  0.3633 -0.3568
15681SOL    HW148484   5.995   4.955  10.963  1.0918  1.6605  0.8565
15681SOL    HW248485   6.036   5.025  10.836 -0.5181 -0.8269 -1.1256
15682SOL     OW48486   7.008   0.480   3.166  0.6155  0.2645 -0.1773
15682SOL    HW148487   7.086   0.436   3.133  0.8460 -0.6666  1.4944
15682SOL    HW248488   6.937   0.418   3.149  0.9278 -0.7997  2.1105
15683SOL     OW48489   4.374   7.192   5.000 -0.3904  0.2924  0.0762
15683SOL    HW148490   4.469   7.185   4.985 -0.2073 -1.4471  1.6651
15683SOL    HW248491   4.349   7.107   5.036 -2.1528  1.4361  1.7798
15684SOL     OW48492   3.073   1.510   4.560 -0.1310  0.1867  0.1277
15684SOL    HW148493   3.079   1.422   4.523  2.0407  0.9298 -1.4853
15684SOL    HW248494   2.979   1.523   4.575 -0.5479 -2.1944 -0.0467
15685SOL     OW48495   7.205   1.996   9.461  0.3550 -0.0839 -0.4762
15685SOL    HW148496   7.229   1.942   9.536  0.1226  0.4324 -0.0279
15685SOL    HW248497   7.171   1.933   9.397  3.3760 -0.9826 -1.4099
15686SOL     OW48498   7.301   3.291  10.084 -0.0024  0.1923  0.0290
15686SOL    HW148499   7.313   3.197  10.099 -0.0113  0.1241 -0.3738
15686SOL    HW248500   7.210   3.308  10.108 -0.0719  0.0496 -0.1313
15687SOL     OW48501   7.174   4.724   3.614 -0.6454 -0.7540  0.3349
15687SOL    HW148502   7.268   4.736   3.625 -0.7768  0.5023  0.2200
15687SOL    HW248503   7.155   4.643   3.661  0.6352 -1.5354 -0.4433
15688SOL     OW48504   3.147   5.546   3.643  0.4169 -0.3794 -0.3279
15688SOL    HW148505   3.203   5.509   3.575  0.2092  0.5031 -1.0077
15688SOL    HW248506   3.192   5.527   3.725  0.7858 -1.2707 -0.7325
15689SOL     OW48507   7.850   6.965   4.024  0.4449 -0.0193 -0.3298
15689SOL    HW148508   7.801   7.045   4.044  0.8175  0.3470 -0.8730
15689SOL    HW248509   7.928   6.971   4.079 -0.1993 -0.7111  0.7054
15690SOL     OW48510   0.854   6.253   4.079  0.1360  0.6394  0.6734
15690SOL    HW148511   0.835   6.197   4.154 -1.2158  0.0755 -0.0518
15690SOL    HW248512   0.850   6.342   4.115 -0.1620  0.3707  1.3311
15691SOL     OW48513   2.109   6.191  11.315  0.4792 -0.1641  0.4865
15691SOL    HW148514   2.052   6.124  11.353 -0.7064  0.4143 -0.2056
15691SOL    HW248515   2.066   6.274  11.336 -0.8181  0.1656 -2.8569
15692SOL     OW48516   0.691   0.981   9.943  0.0463 -0.0038  0.0274
15692SOL    HW148517   0.708   0.889   9.965 -0.3614  0.0444  0.5683
15692SOL    HW248518   0.779   1.018   9.929  0.2285 -0.4083  0.0781
15693SOL     OW48519   3.936   3.491   2.277 -0.3170 -0.6116  0.2505
15693SOL    HW148520   3.855   3.539   2.297 -0.2377 -0.2606 -0.2833
15693SOL    HW248521   3.980   3.483   2.362 -1.4895 -1.8785  0.7899
15694SOL     OW48522   6.316   0.370   2.129 -0.4654  0.2485  0.4078
15694SOL    HW148523   6.403   0.365   2.168 -0.6880 -1.9890  0.7441
15694SOL    HW248524   6.282   0.455   2.157  0.3135 -0.2292  3.1168
15695SOL     OW48525   4.793   4.315   4.070 -0.2657  0.1771 -0.1427
15695SOL    HW148526   4.699   4.295   4.065 -0.6456  2.0120 -1.3750
15695SOL    HW248527   4.810   4.369   3.992  1.7368  0.2117  0.2686
15696SOL     OW48528   3.856   0.037   7.818 -0.4508 -0.3769 -0.2119
15696SOL    HW148529   3.819  -0.038   7.865 -0.6803 -0.8920 -1.1788
15696SOL    HW248530   3.818   0.113   7.861  0.4289 -0.7649  1.3340
15697SOL     OW48531   1.892   2.253  11.144  0.1177 -0.0219  0.3215
15697SOL    HW148532   1.897   2.214  11.231  1.5233  1.4204  0.9504
15697SOL    HW248533   1.947   2.196  11.089  0.8239  0.1298  0.8482
15698SOL     OW48534   2.684   5.124   1.835  0.0872  0.4094 -0.4851
15698SOL    HW148535   2.669   5.030   1.842  0.5530  0.3258 -0.5687
15698SOL    HW248536   2.778   5.135   1.853  0.0601  0.8417 -0.5921
15699SOL     OW48537   2.284   5.699   5.810 -0.3627 -0.7386 -0.1686
15699SOL    HW148538   2.241   5.776   5.772 -2.5072 -1.3551  0.8064
15699SOL    HW248539   2.369   5.695   5.767 -0.5884  1.5871 -0.9759
15700SOL     OW48540   5.377   7.647   7.653 -0.2643  0.0406 -0.2504
15700SOL    HW148541   5.379   7.738   7.623 -0.3380  0.6734  1.4932
15700SOL    HW248542   5.462   7.611   7.630 -0.4302  0.3787 -1.4260
15701SOL     OW48543   3.835   7.387  11.050 -0.5739  0.2042  0.0281
15701SOL    HW148544   3.746   7.421  11.059 -0.4727  0.9313 -1.4532
15701SOL    HW248545   3.890   7.449  11.098 -0.6878  0.6719 -0.4451
15702SOL     OW48546   4.267   5.090  12.105  0.5191 -0.1261 -0.8108
15702SOL    HW148547   4.188   5.054  12.064 -0.2001  4.0015 -3.5919
15702SOL    HW248548   4.234   5.138  12.181  0.5235  0.5016 -1.2046
15703SOL     OW48549   4.324   6.991  12.072 -0.4061 -0.5293 -0.2912
15703SOL    HW148550   4.332   6.896  12.062  2.4858 -0.4382  0.1228
15703SOL    HW248551   4.321   7.005  12.167 -2.3933 -0.2428 -0.3677
15704SOL     OW48552   2.910   7.247  10.207 -0.3372 -0.3747  0.3515
15704SOL    HW148553   2.932   7.340  10.208  1.0849 -0.5011 -3.1899
15704SOL    HW248554   2.820   7.244  10.176 -0.1068 -0.1462 -0.3705
15705SOL     OW48555   7.649   5.589   6.411 -1.0937  0.3955  0.1940
15705SOL    HW148556   7.733   5.591   6.365 -0.7670 -0.7201  0.7184
15705SOL    HW248557   7.584   5.590   6.341 -0.6179 -0.2637 -0.2747
15706SOL     OW48558   0.484   7.154   7.068 -0.6727  0.0895  0.6083
15706SOL    HW148559   0.497   7.064   7.038 -1.0328 -1.1007  3.7013
15706SOL    HW248560   0.418   7.148   7.137 -1.8864  2.9840 -0.1351
15707SOL     OW48561   7.602   6.618   6.884  0.0837  0.5648 -0.3742
15707SOL    HW148562   7.571   6.641   6.796 -1.2273  0.0089 -0.0747
15707SOL    HW248563   7.568   6.688   6.940 -0.3457  0.1443 -0.0987
15708SOL     OW48564   4.237   6.202   5.840  0.3085 -0.1217  0.4413
15708SOL    HW148565   4.162   6.244   5.798 -0.2089 -0.9923  0.4675
15708SOL    HW248566   4.256   6.257   5.916  0.4838  0.7887 -0.2515
15709SOL     OW48567   3.639   6.183   5.044  0.5639  0.4831  0.0427
15709SOL    HW148568   3.561   6.179   4.989  0.6030  2.7088 -0.2580
15709SOL    HW248569   3.699   6.120   5.005 -0.0530  0.7649 -1.4366
15710SOL     OW48570   0.320   4.250   3.331 -0.4616  0.3329 -0.2460
15710SOL    HW148571   0.332   4.337   3.293 -1.5848  0.5852 -0.0625
15710SOL    HW248572   0.280   4.199   3.261  0.8572 -0.2535 -0.5912
15711SOL     OW48573   2.160   3.482   4.693  0.1398 -0.7533  0.3573
15711SOL    HW148574   2.143   3.576   4.707  1.0144 -0.6837  1.0095
15711SOL    HW248575   2.072   3.444   4.684 -0.2051  0.3363 -1.4945
15712SOL     OW48576   7.538   4.824   0.136  0.5055  0.0220  0.0688
15712SOL    HW148577   7.524   4.794   0.046 -1.1499  0.4854  0.1281
15712SOL    HW248578   7.466   4.784   0.186  2.2690 -1.5176  1.5460
15713SOL     OW48579   0.059   0.709   4.276  0.6204  0.4428  0.0382
15713SOL    HW148580   0.064   0.764   4.354  0.7864  0.2805  0.1454
15713SOL    HW248581   0.071   0.769   4.202  2.0022  0.3903  0.1980
15714SOL     OW48582   7.606   3.308  10.887 -0.0514 -0.1789  0.1456
15714SOL    HW148583   7.545   3.327  10.959  0.7066 -0.7785  0.9704
15714SOL    HW248584   7.549   3.297  10.810 -0.7891  1.7402  0.3497
15715SOL     OW48585   1.017   3.866   3.975  0.8932  0.0259 -0.3380
15715SOL    HW148586   0.949   3.909   3.922  0.1578 -0.7181 -0.0222
15715SOL    HW248587   1.064   3.811   3.913  0.3140 -0.5080 -0.3197
15716SOL     OW48588   0.260   2.433   2.598  0.1822  0.1046 -0.1165
15716SOL    HW148589   0.269   2.387   2.682 -2.1695  1.2481  0.8471
15716SOL    HW248590   0.299   2.373   2.534 -0.2665 -1.9756  1.4374
15717SOL     OW48591   1.078   1.118   9.080  0.0016 -0.0618  0.2787
15717SOL    HW148592   1.011   1.183   9.099  0.5128  0.6654 -0.3912
15717SOL    HW248593   1.158   1.155   9.115 -0.1929 -1.7340  2.7775
15718SOL     OW48594   5.518   5.493   5.728  0.8254  0.0892  0.3251
15718SOL    HW148595   5.461   5.427   5.687  0.0741  0.8430  0.1413
15718SOL    HW248596   5.598   5.445   5.748 -0.1760 -1.2212  1.4133
15719SOL     OW48597   2.624   7.374   7.237 -0.0054 -0.4581  0.5508
15719SOL    HW148598   2.649   7.308   7.173 -0.7434  0.2346 -0.4706
15719SOL    HW248599   2.549   7.336   7.283  0.6149 -1.0141  1.1233
15720SOL     OW48600   1.893   5.813  10.469 -0.3585  0.0832 -0.2236
15720SOL    HW148601   1.961   5.755  10.435 -0.1119  0.6347 -0.6997
15720SOL    HW248602   1.885   5.882  10.403 -1.1657  0.1966 -0.0238
15721SOL     OW48603   1.316   7.436   7.505 -0.5778  0.0818  0.2900
15721SOL    HW148604   1.405   7.405   7.522 -1.3606 -3.0185 -0.5360
15721SOL    HW248605   1.319   7.470   7.415 -0.3143 -0.5418  0.0562
15722SOL     OW48606   0.206   1.782   9.403  0.1468  0.5235  0.1506
15722SOL    HW148607   0.203   1.874   9.431  1.9390  0.5693  0.3023
15722SOL    HW248608   0.171   1.733   9.477 -1.4382  1.0841 -0.1707
15723SOL     OW48609   0.728   7.791   4.114 -0.0114  0.1558 -0.1763
15723SOL    HW148610   0.794   7.833   4.170 -0.8629  0.8113  0.3518
15723SOL    HW248611   0.734   7.838   4.031  3.4097 -2.7596 -1.8659
15724SOL     OW48612   3.322   0.602  10.925 -0.1460 -0.2403 -0.1337
15724SOL    HW148613   3.245   0.599  10.982  0.6420 -0.2693  0.9530
15724SOL    HW248614   3.308   0.530  10.864 -1.0008 -0.2245  0.0299
15725SOL     OW48615   1.420   3.099   0.311 -0.2876  0.7471 -0.0326
15725SOL    HW148616   1.462   3.072   0.392  1.4711  0.8213 -0.8719
15725SOL    HW248617   1.451   3.188   0.296  0.5151  0.2681 -1.4510
15726SOL     OW48618   0.547   0.945  12.303  0.2435  0.1614 -0.4746
15726SOL    HW148619   0.578   0.947  12.393  1.1959  0.7858 -0.7964
15726SOL    HW248620   0.626   0.928  12.251 -0.3207 -0.3546 -1.1754
15727SOL     OW48621   4.145   1.720   2.351 -0.1727  0.3969 -0.4118
15727SOL    HW148622   4.220   1.668   2.323 -0.2976 -0.1398  0.2292
15727SOL    HW248623   4.134   1.785   2.282  1.5082  1.1373 -0.0403
15728SOL     OW48624   6.167   3.011   7.366 -0.3615  0.8430  0.6575
15728SOL    HW148625   6.091   3.027   7.309  0.4518 -0.0020 -0.7211
15728SOL    HW248626   6.218   3.092   7.361  0.3139  0.3614 -0.8304
15729SOL     OW48627   3.752   0.901   8.806  0.4432  0.3344  0.0309
15729SOL    HW148628   3.827   0.856   8.845 -0.1739  0.8965  1.9837
15729SOL    HW248629   3.745   0.983   8.855 -0.8245  0.7543 -0.8109
15730SOL     OW48630   0.663   1.989  12.126  0.3921 -0.0950  0.1709
15730SOL    HW148631   0.643   1.975  12.218 -0.8680 -0.3308 -0.1154
15730SOL    HW248632   0.758   2.000  12.123  0.5520 -0.9676  1.3754
15731SOL     OW48633   0.254   4.227   1.294 -0.6597  0.0248  0.2254
15731SOL    HW148634   0.292   4.227   1.381 -1.1838  1.4895  0.4805
15731SOL    HW248635   0.160   4.218   1.308 -0.9362  2.0290 -0.0412
15732SOL     OW48636   3.033   7.232   2.538 -0.1465 -0.0448 -0.8485
15732SOL    HW148637   3.102   7.191   2.589 -0.9765  1.2140  1.4510
15732SOL    HW248638   2.952   7.209   2.585 -0.9754  0.9889 -1.7215
15733SOL     OW48639   6.281   0.071   9.058 -0.0065  0.6780 -0.1044
15733SOL    HW148640   6.236   0.002   9.105 -2.2048  0.7956 -1.8758
15733SOL    HW248641   6.372   0.040   9.051 -0.4853 -1.0735  0.8444
15734SOL     OW48642   0.656   0.769   6.345 -0.1445 -0.0968  0.8446
15734SOL    HW148643   0.747   0.751   6.369 -0.5308 -0.8411  1.8284
15734SOL    HW248644   0.622   0.685   6.314 -0.6711  0.0246  1.0869
15735SOL     OW48645   7.370   7.509   8.855  0.1382  0.0581  0.1225
15735SOL    HW148646   7.378   7.586   8.911  0.5919  0.8191 -0.9585
15735SOL    HW248647   7.458   7.494   8.822  0.9041 -3.1067  3.0269
15736SOL     OW48648   6.718   7.041   8.424  0.1539 -0.3991  0.2588
15736SOL    HW148649   6.646   6.978   8.423  0.8147 -1.1765  0.0255
15736SOL    HW248650   6.788   6.996   8.472 -0.2377  1.1948  2.4714
15737SOL     OW48651   0.809   7.537   1.136  0.0524  0.5557  0.3577
15737SOL    HW148652   0.729   7.484   1.125  0.7466 -0.4177 -0.1486
15737SOL    HW248653   0.857   7.525   1.054  0.6040  1.3470  0.5567
15738SOL     OW48654   0.348   7.670   8.043  0.2288  0.2848 -0.1877
15738SOL    HW148655   0.287   7.721   8.097  0.2178  2.6559 -2.2783
15738SOL    HW248656   0.293   7.625   7.979  0.5171  3.4306 -2.9030
15739SOL     OW48657   3.319   1.580   8.768 -0.5667 -0.4706  0.1381
15739SOL    HW148658   3.314   1.561   8.861  0.2983 -0.9055  0.1134
15739SOL    HW248659   3.370   1.662   8.763  1.3970 -1.6246 -0.0146
15740SOL     OW48660   7.899   7.489   0.317 -0.2530 -0.2621 -0.1056
15740SOL    HW148661   7.838   7.550   0.358  1.7841  2.1405 -0.3753
15740SOL    HW248662   7.891   7.506   0.223 -0.4177 -1.2164 -0.2749
15741SOL     OW48663   0.641   3.920   3.079 -0.6166  0.2443 -0.1296
15741SOL    HW148664   0.598   3.951   3.000  0.5646  0.3391 -0.7467
15741SOL    HW248665   0.734   3.931   3.062 -0.3270 -0.1640  1.0974
15742SOL     OW48666   1.895   0.033  11.237 -0.0036  0.2722 -0.4103
15742SOL    HW148667   1.929   0.105  11.289  0.8584 -1.0438  0.9443
15742SOL    HW248668   1.958  -0.038  11.251 -1.5773 -1.1968 -0.5202
15743SOL     OW48669   7.656   6.831   7.936  0.5230 -0.0240 -0.8220
15743SOL    HW148670   7.745   6.841   7.970  0.8613 -0.5192 -1.5541
15743SOL    HW248671   7.600   6.852   8.011  1.2358  1.1142 -0.5759
15744SOL     OW48672   4.844   7.338   7.990  0.4914 -0.3631 -0.3127
15744SOL    HW148673   4.900   7.300   7.922  0.4321 -1.3552  0.1782
15744SOL    HW248674   4.906   7.372   8.055  0.5387 -0.9710 -0.0331
15745SOL     OW48675   6.299   1.071   0.025  0.0283  0.3734 -0.0837
15745SOL    HW148676   6.376   1.128   0.023  0.6771 -0.4642 -2.7430
15745SOL    HW248677   6.245   1.107   0.096  1.9885  2.1242  0.6312
15746SOL     OW48678   6.746   2.423   6.870  0.4918 -0.0619  0.0616
15746SOL    HW148679   6.773   2.335   6.843  2.1803  0.7771 -1.2030
15746SOL    HW248680   6.810   2.449   6.935 -1.5437 -0.7142  2.4644
15747SOL     OW48681   2.718   6.126   3.594 -0.0959  0.0779 -0.5839
15747SOL    HW148682   2.794   6.083   3.555  0.8017  2.2767 -1.4259
15747SOL    HW248683   2.647   6.110   3.532 -0.0070 -0.8581 -0.4595
15748SOL     OW48684   6.953   5.249   6.309  0.0223  0.0548  0.1460
15748SOL    HW148685   6.902   5.217   6.384  0.2342 -2.9430 -0.8592
15748SOL    HW248686   7.035   5.200   6.312  1.1439  1.7591 -0.6447
15749SOL     OW48687   5.498   4.793  11.863 -0.4113  0.4158  0.2381
15749SOL    HW148688   5.514   4.870  11.918 -2.1217  0.4377  0.7840
15749SOL    HW248689   5.568   4.795  11.798 -1.4621  3.6084 -1.0055
15750SOL     OW48690   4.112   5.478   4.023  0.1514 -0.0366  0.6618
15750SOL    HW148691   4.179   5.415   4.046  1.3843  1.1839  0.5247
15750SOL    HW248692   4.071   5.443   3.944  0.4496 -0.9062  0.8876
15751SOL     OW48693   4.413   5.484   0.246  0.3449 -0.1402 -0.6888
15751SOL    HW148694   4.502   5.504   0.276  0.8669 -1.9015 -0.9819
15751SOL    HW248695   4.423   5.412   0.185 -1.4521 -1.5958  0.6092
15752SOL     OW48696   4.766   1.245   7.661 -0.0836 -0.3506  0.1453
15752SOL    HW148697   4.689   1.232   7.717  1.0527 -0.3473  1.7703
15752SOL    HW248698   4.773   1.340   7.653  0.7257 -0.2617  1.4871
15753SOL     OW48699   4.590   2.160  11.565 -0.4053  0.2618  0.2055
15753SOL    HW148700   4.679   2.135  11.539 -0.2696  0.3008  0.6221
15753SOL    HW248701   4.580   2.249  11.533 -0.2413  0.3077  0.2801
15754SOL     OW48702   3.923   0.264  11.278 -0.2097 -0.0048 -0.3261
15754SOL    HW148703   3.829   0.258  11.262  0.1166 -1.7661 -2.0818
15754SOL    HW248704   3.939   0.355  11.302 -2.1186  0.7777 -1.8349
15755SOL     OW48705   2.372   3.320   3.653 -0.1326  0.3023  0.6975
15755SOL    HW148706   2.316   3.315   3.576  0.1651  0.3793  0.4735
15755SOL    HW248707   2.454   3.278   3.627 -0.6641 -1.3402  1.5706
15756SOL     OW48708   5.046   2.241  12.394 -0.9214  0.1582  0.7702
15756SOL    HW148709   5.122   2.214  12.343 -1.5619 -0.3126  0.0397
15756SOL    HW248710   5.000   2.159  12.414 -0.8972  0.3762  1.7655
15757SOL     OW48711   5.983   6.427   0.416  0.2750  0.1809  0.2934
15757SOL    HW148712   5.943   6.513   0.407  1.0044  0.4176 -0.9883
15757SOL    HW248713   6.020   6.427   0.504 -1.8759  0.2032  1.2506
15758SOL     OW48714   6.705   1.304   1.765  0.0814  0.2964 -0.4520
15758SOL    HW148715   6.775   1.309   1.700 -1.9965 -1.3682 -2.9789
15758SOL    HW248716   6.683   1.395   1.784 -0.1373  0.8791 -3.1695
15759SOL     OW48717   5.798   2.545   3.619  0.0691  0.1701 -0.1411
15759SOL    HW148718   5.838   2.494   3.549  0.5344  3.8342 -2.8022
15759SOL    HW248719   5.811   2.636   3.594  0.4377  1.8269  4.8697
15760SOL     OW48720   6.111   6.777   9.566  0.5632  0.1880  0.2010
15760SOL    HW148721   6.183   6.754   9.507 -0.3779  1.9249 -1.7828
15760SOL    HW248722   6.067   6.694   9.585  1.3503 -0.5245 -0.9746
15761SOL     OW48723   3.679   1.492   8.159  0.2390 -0.1856  0.1598
15761SOL    HW148724   3.659   1.410   8.204 -2.2389 -0.3945 -1.1265
15761SOL    HW248725   3.693   1.466   8.068 -2.2029  0.8647 -0.6118
15762SOL     OW48726   1.929   2.109   5.502  0.6722 -0.2454 -0.3018
15762SOL    HW148727   1.893   2.195   5.480  2.0429  0.7546  1.1640
15762SOL    HW248728   1.880   2.048   5.447 -0.3023  1.4650 -1.4277
15763SOL     OW48729   2.450   7.372   6.149 -0.5134 -0.0645 -0.6667
15763SOL    HW148730   2.495   7.382   6.065  0.2208  0.4991 -0.2218
15763SOL    HW248731   2.481   7.446   6.202 -2.3022  0.6180 -0.4791
15764SOL     OW48732   4.362   6.253   1.844 -0.2587 -0.5153  0.2772
15764SOL    HW148733   4.405   6.314   1.786 -1.5855 -0.8640 -1.1361
15764SOL    HW248734   4.395   6.275   1.931  2.2302 -0.3729 -0.6314
15765SOL     OW48735   5.735   4.032   3.365 -0.3363 -0.1676 -0.4991
15765SOL    HW148736   5.765   4.035   3.274  0.5368 -1.8968 -0.3281
15765SOL    HW248737   5.640   4.034   3.359 -0.2793  0.5606 -1.3962
15766SOL     OW48738   0.945   7.001   2.562 -0.7224 -0.3633 -0.0151
15766SOL    HW148739   1.000   6.927   2.587 -0.5671 -0.1839  0.1905
15766SOL    HW248740   0.883   7.011   2.635  1.4543  1.8620  1.7388
15767SOL     OW48741   6.936   5.898   2.284 -0.1227 -0.1324 -1.1077
15767SOL    HW148742   6.988   5.854   2.217  0.6828  0.9213 -1.2059
15767SOL    HW248743   6.993   5.968   2.317 -1.0079  0.2378 -0.2952
15768SOL     OW48744   7.554   6.847   9.222  0.6869  0.1841  0.1448
15768SOL    HW148745   7.556   6.777   9.157  0.1337  0.2933  0.0056
15768SOL    HW248746   7.555   6.802   9.307 -0.3917 -0.0322  0.0626
15769SOL     OW48747   6.729   6.352  10.882 -0.4601 -0.0820 -0.2089
15769SOL    HW148748   6.635   6.337  10.880 -0.5948  0.6917  0.0746
15769SOL    HW248749   6.758   6.334  10.792 -1.4961  3.3606 -1.3949
15770SOL     OW48750   6.870   2.062   7.890 -0.2627 -0.2657 -0.9727
15770SOL    HW148751   6.892   2.089   7.979  0.7485 -1.2084 -0.9093
15770SOL    HW248752   6.825   2.137   7.852 -0.4880  0.2383  0.2503
15771SOL     OW48753   4.525   2.312   3.519 -0.0311  0.7586  0.1984
15771SOL    HW148754   4.530   2.335   3.612 -1.4201  1.5537  0.1015
15771SOL    HW248755   4.443   2.351   3.489 -0.6575 -1.2455 -0.8706
15772SOL     OW48756   1.073   5.654   8.061 -0.1377 -0.3824  0.3434
15772SOL    HW148757   1.072   5.750   8.060 -1.2297 -0.3874  0.3420
15772SOL    HW248758   1.073   5.632   8.154 -1.4187 -0.3776  0.3575
15773SOL     OW48759   4.002   1.463   6.670  0.4990  0.0572 -0.0141
15773SOL    HW148760   3.981   1.445   6.578  1.3942 -1.3196  0.0113
15773SOL    HW248761   4.063   1.537   6.667  1.5531 -0.8044 -0.6537
15774SOL     OW48762   1.478   2.681   5.936  0.0459  0.0393 -0.1189
15774SOL    HW148763   1.538   2.627   5.988 -0.5211 -2.2985 -1.7285
15774SOL    HW248764   1.514   2.678   5.847 -1.2280  0.4504 -0.6735
15775SOL     OW48765   7.688   1.215   9.139 -0.1336 -0.1427 -0.5785
15775SOL    HW148766   7.741   1.294   9.145 -0.0243 -0.2140 -0.6070
15775SOL    HW248767   7.598   1.247   9.132 -0.4175 -0.0342  2.3876
15776SOL     OW48768   6.539   4.703   0.428  0.0879 -0.2843  0.1982
15776SOL    HW148769   6.627   4.737   0.448 -0.3682  0.1942  1.5275
15776SOL    HW248770   6.482   4.779   0.437 -0.5077 -0.6488 -0.4134
15777SOL     OW48771   7.848   3.395   1.097  0.7444 -0.3574  0.0563
15777SOL    HW148772   7.894   3.465   1.052  0.7126  0.0976  0.7148
15777SOL    HW248773   7.825   3.432   1.182 -0.3340 -0.7637 -0.0360
15778SOL     OW48774   3.387   6.215   1.239 -0.3904  0.0042  0.5726
15778SOL    HW148775   3.442   6.189   1.165 -0.2341 -1.4249  1.1479
15778SOL    HW248776   3.315   6.152   1.238 -1.1115  0.8205  0.8250
15779SOL     OW48777   1.361   4.361   6.328 -0.0807  0.2618 -0.2814
15779SOL    HW148778   1.321   4.400   6.251 -1.1142  0.3980  0.3051
15779SOL    HW248779   1.378   4.434   6.387 -0.1609  0.0658 -0.0077
15780SOL     OW48780   1.446   5.091  12.045 -0.2235 -0.3905 -0.6839
15780SOL    HW148781   1.468   5.029  12.114 -1.0837  1.1008  1.0329
15780SOL    HW248782   1.365   5.132  12.076  0.4659  1.7642 -1.5724
15781SOL     OW48783   2.136   7.220   1.974  0.4400 -0.2477  0.2003
15781SOL    HW148784   2.119   7.166   1.896  1.6560  0.5967 -0.6925
15781SOL    HW248785   2.052   7.224   2.019  0.0613 -1.9695 -0.2894
15782SOL     OW48786   0.115   4.285   3.514 -0.5987 -0.1840 -0.3276
15782SOL    HW148787   0.078   4.200   3.490 -0.4873 -0.0874 -0.8519
15782SOL    HW248788   0.186   4.299   3.451 -0.2010  0.0075  0.1519
15783SOL     OW48789   7.516   6.011   1.522 -0.3185 -0.0660 -0.1164
15783SOL    HW148790   7.552   5.931   1.560 -1.9368 -0.1957  1.2647
15783SOL    HW248791   7.441   5.980   1.470 -1.5797  0.5871  1.2427
15784SOL     OW48792   5.938   3.346  12.374 -0.7423  0.4050 -0.0061
15784SOL    HW148793   6.000   3.358  12.302 -1.1595  0.4926 -0.3525
15784SOL    HW248794   5.908   3.435  12.396 -1.1811  0.3130 -0.2266
15785SOL     OW48795   5.049   7.466   5.450  0.3361 -0.0596 -0.4041
15785SOL    HW148796   4.990   7.422   5.389 -0.4412  1.5540 -0.8424
15785SOL    HW248797   5.134   7.463   5.406 -0.0719  0.4446 -1.2535
15786SOL     OW48798   5.159   4.920   4.936  0.7135 -0.6127  0.5286
15786SOL    HW148799   5.152   4.964   5.021 -0.8083  0.1935  0.0262
15786SOL    HW248800   5.253   4.920   4.917  0.8006  3.1537  0.2314
15787SOL     OW48801   2.102   3.426   1.952 -0.4854  0.5685 -0.9303
15787SOL    HW148802   2.028   3.433   2.012 -0.2881  0.1612 -0.6427
15787SOL    HW248803   2.100   3.336   1.920 -1.4109  1.1275 -2.6025
15788SOL     OW48804   5.161   0.800   1.452  0.4007 -0.6383  0.3781
15788SOL    HW148805   5.110   0.843   1.383 -1.9100 -0.9076  1.8165
15788SOL    HW248806   5.187   0.716   1.414 -0.9386 -0.8295 -0.1777
15789SOL     OW48807   6.202   0.631   2.194 -0.0783 -0.1338  0.0494
15789SOL    HW148808   6.170   0.667   2.277  0.5903  0.7550 -0.0609
15789SOL    HW248809   6.126   0.637   2.136 -1.0257 -2.1829  0.9680
15790SOL     OW48810   5.626   1.465  11.341  0.4250  0.2150 -0.2904
15790SOL    HW148811   5.605   1.389  11.287 -0.8704 -0.7250  1.3983
15790SOL    HW248812   5.585   1.446  11.426  0.8272  2.4042  0.4759
15791SOL     OW48813   5.000   6.998   8.071 -0.7553 -0.2300 -0.1628
15791SOL    HW148814   5.045   6.924   8.030  0.1999  1.0469 -1.5532
15791SOL    HW248815   4.908   6.975   8.069 -0.3673 -2.0230  0.8283
15792SOL     OW48816   3.737   0.480  12.013 -0.1251 -0.2819 -0.3117
15792SOL    HW148817   3.805   0.493  12.079 -0.5080  2.0280 -0.2872
15792SOL    HW248818   3.757   0.545  11.946 -1.8378 -0.1077 -0.6811
15793SOL     OW48819   3.816   4.720   3.231 -0.0518 -0.1630  0.2891
15793SOL    HW148820   3.723   4.718   3.208  0.0330  0.3463 -0.1045
15793SOL    HW248821   3.817   4.719   3.327 -0.4900  0.7292  0.3146
15794SOL     OW48822   6.174   4.771   8.433 -0.0719 -0.3254 -0.0031
15794SOL    HW148823   6.107   4.784   8.366 -0.3200 -0.0968  0.2865
15794SOL    HW248824   6.134   4.710   8.495 -0.2407  0.2550  0.4726
15795SOL     OW48825   2.340   2.576   7.656  0.7919  0.7017 -0.3053
15795SOL    HW148826   2.358   2.668   7.634  2.3445  0.5106  0.0423
15795SOL    HW248827   2.414   2.550   7.711 -0.4054 -0.3238  0.8770
15796SOL     OW48828   4.815   2.659   2.006 -0.3645 -0.1949 -0.4579
15796SOL    HW148829   4.842   2.637   1.917 -1.0020 -1.5039 -0.3509
15796SOL    HW248830   4.864   2.600   2.062 -1.0229 -0.3738 -0.0509
15797SOL     OW48831   1.796   5.281   7.387  0.1496 -0.4035 -0.5211
15797SOL    HW148832   1.860   5.223   7.428  0.3156 -2.4084 -3.3895
15797SOL    HW248833   1.725   5.287   7.451  2.1918  0.2025  1.8539
15798SOL     OW48834   1.258   0.207   1.247 -0.0453 -0.3354 -0.0536
15798SOL    HW148835   1.227   0.117   1.238 -0.6835 -0.2341  1.0644
15798SOL    HW248836   1.353   0.199   1.252 -0.1045 -0.9519  0.1200
15799SOL     OW48837   6.429   7.302   5.540 -0.2548 -0.4554 -0.3541
15799SOL    HW148838   6.499   7.291   5.476  0.1604  0.4277 -0.0651
15799SOL    HW248839   6.375   7.223   5.530  0.3466 -0.7867 -1.1055
15800SOL     OW48840   6.586   5.793   0.176 -0.2454  0.0080 -0.1558
15800SOL    HW148841   6.572   5.879   0.215 -0.2615  0.4058 -1.0178
15800SOL    HW248842   6.500   5.765   0.146 -0.2690 -0.3873  0.2626
15801SOL     OW48843   4.382   1.605   9.816 -0.3602  0.0879 -0.3209
15801SOL    HW148844   4.353   1.514   9.817 -0.7578  0.2043 -0.7466
15801SOL    HW248845   4.478   1.600   9.818 -0.3839 -0.3368 -0.2344
15802SOL     OW48846   0.986   7.955   0.912 -0.1949  0.2966  0.0221
15802SOL    HW148847   1.001   7.896   0.986 -0.2281 -1.1441 -1.0646
15802SOL    HW248848   0.983   7.897   0.835 -0.8655  1.6531 -1.0319
15803SOL     OW48849   3.516   1.679   5.766 -0.4274 -0.6778  0.2806
15803SOL    HW148850   3.518   1.748   5.833  1.1010 -1.6537  1.2924
15803SOL    HW248851   3.608   1.661   5.748 -0.7851 -2.7433  0.3445
15804SOL     OW48852   4.900   1.460   1.806 -0.2715 -0.2848 -0.0813
15804SOL    HW148853   4.985   1.417   1.803 -0.5531 -0.8919  0.4516
15804SOL    HW248854   4.907   1.531   1.742  1.0670  0.4748  0.8786
15805SOL     OW48855   3.269   4.700   9.333  0.0572  0.2901  0.4705
15805SOL    HW148856   3.343   4.680   9.389 -0.3240 -0.3248  0.7656
15805SOL    HW248857   3.259   4.622   9.278  0.1262  0.6896 -0.1292
15806SOL     OW48858   6.399   6.926  11.993 -0.2081  0.2930  0.2504
15806SOL    HW148859   6.371   7.015  12.012 -0.8510  0.0391  0.5007
15806SOL    HW248860   6.341   6.896  11.923  1.0090  0.6011 -0.9458
15807SOL     OW48861   0.879   3.578   6.872 -0.1535 -0.1920  0.4219
15807SOL    HW148862   0.852   3.609   6.785 -0.6411 -1.5600  0.0702
15807SOL    HW248863   0.970   3.607   6.880 -0.5051  1.0988  0.0223
15808SOL     OW48864   3.340   7.946  10.356 -0.0102  0.0851  0.0361
15808SOL    HW148865   3.348   7.992  10.272  0.4858 -0.8332 -0.4330
15808SOL    HW248866   3.420   7.971  10.404 -0.0705  0.2448  0.0551
15809SOL     OW48867   6.535   7.647   9.001 -0.8889  0.2336 -0.0676
15809SOL    HW148868   6.539   7.646   8.905 -0.8661 -0.4767 -0.0649
15809SOL    HW248869   6.516   7.738   9.023 -0.3359  0.5179 -0.7247
15810SOL     OW48870   5.957   0.547   8.239  0.0979  0.5385  0.0912
15810SOL    HW148871   5.891   0.571   8.173  1.1326 -0.6305 -1.4635
15810SOL    HW248872   6.023   0.498   8.189  1.1127 -0.0935  1.9650
15811SOL     OW48873   0.328   6.316   4.349  0.4362  0.1758 -0.4372
15811SOL    HW148874   0.334   6.393   4.293  0.7258  0.7212  0.3260
15811SOL    HW248875   0.242   6.324   4.392 -0.3897 -0.9506 -1.7880
15812SOL     OW48876   6.879   5.135   7.161 -0.0178  0.1226 -0.1433
15812SOL    HW148877   6.939   5.098   7.225  1.2317  2.6259  0.2884
15812SOL    HW248878   6.793   5.101   7.185  0.9799 -2.2882  0.2190
15813SOL     OW48879   7.812   0.213   6.106  0.0630  0.5425  0.6006
15813SOL    HW148880   7.865   0.217   6.185 -2.9582  1.3841  2.7330
15813SOL    HW248881   7.736   0.268   6.124 -1.7321 -0.7724 -2.1413
15814SOL     OW48882   1.085   4.513   9.235  0.1752  0.6857 -0.3687
15814SOL    HW148883   1.096   4.545   9.146  0.3838  0.5745 -0.3842
15814SOL    HW248884   0.999   4.544   9.262 -0.3304 -0.1425 -0.9713
15815SOL     OW48885   2.919   6.589   3.510  0.0014  0.4743  0.1935
15815SOL    HW148886   2.899   6.681   3.526  0.5113  0.7102 -0.4692
15815SOL    HW248887   2.961   6.560   3.591  0.3382  0.9801  0.2094
15816SOL     OW48888   3.175   0.948   8.782  0.4410 -0.0953 -0.3540
15816SOL    HW148889   3.264   0.979   8.796  0.7261 -0.9930 -0.1127
15816SOL    HW248890   3.172   0.863   8.828 -0.9594  0.5863  0.9059
15817SOL     OW48891   0.508   0.931  11.060  0.1258 -0.2333 -0.2201
15817SOL    HW148892   0.531   0.868  11.128  0.3223  0.4492  0.3515
15817SOL    HW248893   0.591   0.970  11.034  0.0304 -0.3664 -0.7377
15818SOL     OW48894   5.814   7.773   0.532 -0.0015 -0.2398 -0.5854
15818SOL    HW148895   5.782   7.726   0.454  0.6106  0.6178 -1.3762
15818SOL    HW248896   5.740   7.826   0.559 -0.1058 -0.2704 -0.8045
15819SOL     OW48897   5.159   4.166  11.262  0.1338 -0.2278 -0.5571
15819SOL    HW148898   5.221   4.233  11.292 -1.1003  0.2050  1.2393
15819SOL    HW248899   5.117   4.135  11.343 -2.3707 -0.0980 -1.7069
15820SOL     OW48900   0.680   3.774  11.511 -0.3829 -0.5766  0.8150
15820SOL    HW148901   0.721   3.744  11.592 -0.1950 -3.2793 -0.1778
15820SOL    HW248902   0.586   3.766  11.527 -0.3417 -1.4830  0.6967
15821SOL     OW48903   6.976   1.367   7.780  0.3245 -0.1375 -0.2701
15821SOL    HW148904   7.019   1.314   7.713 -1.3159  0.6297 -2.0000
15821SOL    HW248905   6.967   1.454   7.741  0.8709  0.8507  1.6347
15822SOL     OW48906   5.739   2.350   6.083  0.3587  0.0057 -0.3134
15822SOL    HW148907   5.705   2.436   6.058 -0.9151 -0.7555 -1.3699
15822SOL    HW248908   5.744   2.302   6.000  2.0431 -0.6206  0.1203
15823SOL     OW48909   6.155   3.731  11.542 -1.1822  0.3900  0.2099
15823SOL    HW148910   6.210   3.806  11.517  1.1637 -1.2848  0.0521
15823SOL    HW248911   6.135   3.747  11.634 -1.5148  1.6562 -0.0548
15824SOL     OW48912   0.216   5.410   8.754  0.0940  0.3941  0.5146
15824SOL    HW148913   0.173   5.424   8.838 -1.9551  1.1838 -0.5888
15824SOL    HW248914   0.183   5.326   8.723  0.7641  0.1474  0.4576
15825SOL     OW48915   2.321   1.839   0.919 -0.5580  0.1531 -0.5054
15825SOL    HW148916   2.308   1.910   0.982  2.6176  0.1349  0.2959
15825SOL    HW248917   2.386   1.872   0.858  1.0317 -2.0043 -0.0931
15826SOL     OW48918   2.351   6.114   9.251 -0.1921 -0.7031 -0.4713
15826SOL    HW148919   2.339   6.125   9.157  0.8531  0.8951 -0.4687
15826SOL    HW248920   2.397   6.194   9.278 -0.6185 -1.0573  1.4218
15827SOL     OW48921   1.696   5.242   6.692  0.1206  0.3564  0.0671
15827SOL    HW148922   1.708   5.147   6.686  1.2665  0.5620 -1.5534
15827SOL    HW248923   1.633   5.253   6.763  0.4066 -1.5766  0.7022
15828SOL     OW48924   1.580   1.381  11.856  0.3765  0.0865  0.0649
15828SOL    HW148925   1.668   1.367  11.892  0.3274 -0.3993  0.0071
15828SOL    HW248926   1.548   1.293  11.837  0.2733  0.3083 -0.8639
15829SOL     OW48927   1.139   5.357   8.018  0.3218 -0.3425  0.1032
15829SOL    HW148928   1.117   5.447   7.993 -1.9580 -1.1118 -0.8847
15829SOL    HW248929   1.182   5.366   8.104 -0.5585  1.6235  0.3916
15830SOL     OW48930   7.310   4.187   2.078 -0.1130 -0.3475  0.3485
15830SOL    HW148931   7.268   4.124   2.019 -0.6250  1.1827 -0.9835
15830SOL    HW248932   7.402   4.186   2.052 -0.2111 -0.1857 -0.0080
15831SOL     OW48933   5.536   2.770  11.329  0.3398 -0.4625 -0.4782
15831SOL    HW148934   5.567   2.849  11.374 -1.1852  0.4412 -0.9214
15831SOL    HW248935   5.497   2.716  11.397 -0.5182  0.1682 -0.4472
15832SOL     OW48936   0.858   4.227   5.796  0.4703  0.4672 -0.0506
15832SOL    HW148937   0.864   4.172   5.874  1.1910  2.2123  1.1937
15832SOL    HW248938   0.770   4.265   5.801  0.4944  0.5301 -0.1146
15833SOL     OW48939   4.029   5.586   1.550 -0.1568  0.0656  0.6328
15833SOL    HW148940   3.939   5.561   1.529  0.5176 -0.1880 -2.4402
15833SOL    HW248941   4.072   5.504   1.572 -0.2622 -0.0832  0.2943
15834SOL     OW48942   1.917   7.301   7.654 -0.3171 -0.0317 -0.1996
15834SOL    HW148943   2.005   7.264   7.652  0.1840  1.1057 -0.1264
15834SOL    HW248944   1.928   7.392   7.625 -1.4418  0.1834 -0.0271
15835SOL     OW48945   6.747   6.856   5.133 -0.0815 -0.5179  0.1376
15835SOL    HW148946   6.711   6.796   5.067 -3.4147 -0.3314  1.5664
15835SOL    HW248947   6.709   6.941   5.111  1.6405  0.3365  0.2909
15836SOL     OW48948   0.191   3.462   2.052 -0.4252 -0.1819 -0.3134
15836SOL    HW148949   0.149   3.508   2.124 -0.2501 -0.8951  0.2590
15836SOL    HW248950   0.120   3.445   1.990 -0.4320  1.1150 -0.6954
15837SOL     OW48951   7.259   2.515   9.169 -0.0130  0.1993 -0.1551
15837SOL    HW148952   7.190   2.503   9.235 -0.7415  1.8577 -0.5327
15837SOL    HW248953   7.216   2.566   9.100  1.8984  2.3935  0.1644
15838SOL     OW48954   6.737   2.150   1.161 -0.5085  0.5818 -0.6876
15838SOL    HW148955   6.669   2.217   1.157 -2.7099 -1.5196 -1.0249
15838SOL    HW248956   6.718   2.102   1.241  0.6267 -0.0333 -0.7715
15839SOL     OW48957   3.440   5.931   9.566 -0.5096 -0.0377 -0.1640
15839SOL    HW148958   3.421   5.838   9.558 -1.6538  0.0203  1.4350
15839SOL    HW248959   3.451   5.946   9.660  0.2591  1.3411 -0.4352
15840SOL     OW48960   5.731   4.128   7.436  0.0248  0.2988 -0.5011
15840SOL    HW148961   5.761   4.172   7.516 -0.2422  0.5390 -0.5338
15840SOL    HW248962   5.696   4.044   7.466  1.9797 -0.6196 -0.5871
15841SOL     OW48963   7.837   2.601   3.775 -0.4705  0.4654  0.0987
15841SOL    HW148964   7.879   2.557   3.849 -2.8270  0.3820  1.4768
15841SOL    HW248965   7.857   2.694   3.788 -0.2836  0.3803  0.4222
15842SOL     OW48966   1.005   7.225   1.504  0.2204  0.6210  0.3513
15842SOL    HW148967   0.954   7.205   1.583  1.3144 -1.0570  0.6954
15842SOL    HW248968   1.084   7.268   1.537  0.7599 -0.2418  0.2172
15843SOL     OW48969   4.918   2.271  10.157  0.0202  0.7255  0.5448
15843SOL    HW148970   4.925   2.356  10.113  0.4423  2.7731  4.1875
15843SOL    HW248971   4.825   2.265  10.182 -0.2165 -0.4232 -0.4920
15844SOL     OW48972   5.614   5.787   2.899  0.1379  0.0535 -0.1514
15844SOL    HW148973   5.608   5.714   2.837 -0.9096 -0.0046  0.0008
15844SOL    HW248974   5.576   5.861   2.853 -0.9813 -0.0746  0.5291
15845SOL     OW48975   6.134   2.320  12.060  0.4560  0.0003  0.1773
15845SOL    HW148976   6.147   2.270  12.140 -0.1419  1.0164  0.9358
15845SOL    HW248977   6.045   2.353  12.066  0.7524  0.9589 -0.3881
15846SOL     OW48978   7.703   4.063   5.169  0.1463  0.2353 -0.7070
15846SOL    HW148979   7.746   4.130   5.116  1.6247  0.2950  0.5330
15846SOL    HW248980   7.656   4.111   5.237  0.9601  0.0482  0.0018
15847SOL     OW48981   7.408   1.632   6.689  0.1210  0.3055  0.1350
15847SOL    HW148982   7.396   1.657   6.780  1.5082 -2.9931  1.3960
15847SOL    HW248983   7.326   1.589   6.664  0.6593 -1.2040  0.8214
15848SOL     OW48984   1.810   5.808   3.780  0.3465 -0.7337 -0.4911
15848SOL    HW148985   1.754   5.792   3.856 -1.6083  1.4731 -1.3495
15848SOL    HW248986   1.848   5.894   3.796  1.6047 -1.1555 -1.0800
15849SOL     OW48987   7.842   4.660   6.318 -0.0539 -0.5695  0.4705
15849SOL    HW148988   7.884   4.631   6.237  0.3133 -2.5418  1.3046
15849SOL    HW248989   7.750   4.670   6.295 -0.0524 -1.6846 -0.0578
15850SOL     OW48990   5.829   5.930   6.455 -0.1061  0.0996  0.2423
15850SOL    HW148991   5.795   6.005   6.406 -0.7656 -0.2425  0.1660
15850SOL    HW248992   5.753   5.896   6.502 -0.1294 -1.3644 -0.8006
15851SOL     OW48993   1.377   4.503   9.291  0.1304 -0.2892  0.7622
15851SOL    HW148994   1.398   4.596   9.304  0.4240 -0.4203  1.2752
15851SOL    HW248995   1.283   4.498   9.310  0.1453 -0.1203  0.8950
15852SOL     OW48996   1.014   5.646  11.988  0.0273 -0.3688 -0.4867
15852SOL    HW148997   0.945   5.710  11.971 -0.3031 -0.6865 -0.3336
15852SOL    HW248998   1.059   5.637  11.903  1.4325  1.6370 -0.0247
15853SOL     OW48999   2.337   0.618   5.116 -0.7524 -0.0155 -0.3368
15853SOL    HW149000   2.394   0.544   5.138 -0.7091  0.1084 -0.0184
15853SOL    HW249001   2.334   0.619   5.021 -1.3275 -0.8675 -0.3411
15854SOL     OW49002   1.062   0.958  11.756 -0.0417  0.0439 -0.2307
15854SOL    HW149003   1.145   0.922  11.786 -0.2425 -0.2102  0.0199
15854SOL    HW249004   1.020   0.887  11.708 -1.0650 -0.5427  1.4497
15855SOL     OW49005   3.896   5.569   5.712  0.0026 -0.0858  0.1822
15855SOL    HW149006   3.856   5.655   5.697 -2.0861 -1.0520 -0.1189
15855SOL    HW249007   3.828   5.506   5.688  1.8648 -1.8692 -0.7022
15856SOL     OW49008   6.675   3.204   5.669  0.3072  0.0339  0.7482
15856SOL    HW149009   6.636   3.228   5.754  0.2691  2.8981  0.0258
15856SOL    HW249010   6.748   3.265   5.659  0.0532  0.0338 -1.4420
15857SOL     OW49011   0.807   6.051   0.345  0.2146  0.7826  0.1135
15857SOL    HW149012   0.726   6.098   0.364 -0.8640 -0.0215 -2.0810
15857SOL    HW249013   0.836   6.087   0.261 -0.5314 -2.1798 -1.5413
15858SOL     OW49014   4.418   0.190   9.441  0.1707  0.1717  0.2813
15858SOL    HW149015   4.432   0.245   9.364  1.3688  0.1250  0.4494
15858SOL    HW249016   4.378   0.110   9.407  1.3386 -0.1447 -0.4173
15859SOL     OW49017   3.712   6.405  11.335 -0.3233  0.7365  0.8189
15859SOL    HW149018   3.635   6.407  11.279 -0.2302 -1.7815  0.4810
15859SOL    HW249019   3.781   6.448  11.283 -0.9795  1.1901  0.3067
15860SOL     OW49020   3.722   1.357  10.219  0.0546 -0.3540 -0.3666
15860SOL    HW149021   3.789   1.310  10.269  1.1980  0.4585 -1.0836
15860SOL    HW249022   3.700   1.299  10.147  0.9118 -0.1206 -0.8270
15861SOL     OW49023   5.943   7.811   8.341  0.0094  0.3859 -0.3992
15861SOL    HW149024   5.993   7.756   8.281 -0.2971 -0.7535  0.3479
15861SOL    HW249025   5.852   7.781   8.330 -0.1405  0.6381  0.1208
15862SOL     OW49026   3.412   4.754   1.967  0.2117  0.5096  0.3533
15862SOL    HW149027   3.377   4.704   2.041 -1.1699  0.4733 -0.3001
15862SOL    HW249028   3.398   4.845   1.991 -0.2690  0.4972  0.1288
15863SOL     OW49029   2.434   2.002   2.161 -0.6421 -0.6117 -0.2893
15863SOL    HW149030   2.524   2.015   2.131 -0.8601  1.4722 -0.1971
15863SOL    HW249031   2.381   2.046   2.095 -1.2359  2.5215  2.0156
15864SOL     OW49032   2.021   1.015  10.717  0.1341  0.4513 -0.2451
15864SOL    HW149033   1.947   1.031  10.658  0.5807 -0.2019 -1.0175
15864SOL    HW249034   2.014   1.083  10.784 -2.2122 -0.6778  0.7669
15865SOL     OW49035   3.502   1.487   9.223 -0.3970  0.4200 -0.6050
15865SOL    HW149036   3.545   1.555   9.171  3.4813 -1.6733 -0.4835
15865SOL    HW249037   3.554   1.408   9.208 -1.2758 -1.2097  3.5575
15866SOL     OW49038   2.551   7.071   0.060  0.0523  0.1129 -0.0405
15866SOL    HW149039   2.632   7.024   0.041  1.1872  1.4754  1.2101
15866SOL    HW249040   2.508   7.019   0.128 -1.2522 -1.7484 -2.1390
15867SOL     OW49041   6.412   4.235  11.720 -0.3060 -0.1449  0.9601
15867SOL    HW149042   6.481   4.200  11.776 -0.9184  0.9479  2.4778
15867SOL    HW249043   6.443   4.219  11.631 -0.0523 -3.4395  1.5230
15868SOL     OW49044   5.161   1.206   9.059 -0.3514 -0.1389 -0.2909
15868SOL    HW149045   5.141   1.263   9.133  0.1591  2.1259 -1.7960
15868SOL    HW249046   5.127   1.120   9.085 -1.0455  0.7862  2.1375
15869SOL     OW49047   5.411   0.647   6.292  0.1860  0.3229 -0.3037
15869SOL    HW149048   5.327   0.602   6.285  0.4941 -0.1209 -1.2948
15869SOL    HW249049   5.397   0.730   6.247  0.2566  0.2701 -0.4246
15870SOL     OW49050   2.970   5.226   2.097 -0.2348 -0.2151  0.1764
15870SOL    HW149051   3.051   5.189   2.133  0.4416  1.6662  0.7041
15870SOL    HW249052   2.982   5.224   2.002 -0.3099 -1.4907  0.1787
15871SOL     OW49053   5.676   3.989  10.233  0.1243 -0.5380 -0.1742
15871SOL    HW149054   5.603   3.999  10.171  0.6432 -0.5406 -0.8004
15871SOL    HW249055   5.642   4.021  10.316 -0.3608  0.1495 -0.6271
15872SOL     OW49056   1.802   5.418  11.642 -0.3242 -0.8674 -0.0371
15872SOL    HW149057   1.829   5.487  11.582  0.8824 -0.6710  0.6816
15872SOL    HW249058   1.750   5.462  11.709  0.8728 -0.5180  0.7060
15873SOL     OW49059   7.175   2.923   1.075  0.3534  0.0824  0.6545
15873SOL    HW149060   7.267   2.905   1.054  0.2619  2.0784 -1.9788
15873SOL    HW249061   7.128   2.845   1.046  1.1192 -0.7097  1.4681
15874SOL     OW49062   6.893   1.009   8.256  0.4616 -0.2255  0.1978
15874SOL    HW149063   6.944   1.005   8.175  0.6624  2.0320  0.1558
15874SOL    HW249064   6.812   1.055   8.231 -1.5645 -3.4046  0.3392
15875SOL     OW49065   2.785   1.041   0.625  0.1262 -0.1995  0.2333
15875SOL    HW149066   2.844   0.981   0.671 -1.1759 -1.7838 -0.0490
15875SOL    HW249067   2.794   1.016   0.533  0.4779  0.9138 -0.0475
15876SOL     OW49068   2.852   5.053   5.918 -0.4127 -0.2473 -0.1576
15876SOL    HW149069   2.824   4.967   5.948  1.4820 -0.5167  1.0107
15876SOL    HW249070   2.937   5.067   5.960 -0.4458  1.9993 -0.6874
15877SOL     OW49071   7.633   5.052   4.440 -0.0055  0.3335 -0.0118
15877SOL    HW149072   7.724   5.065   4.467  0.1203 -1.2269  0.4291
15877SOL    HW249073   7.623   5.108   4.363  1.3180  0.5640 -0.0472
15878SOL     OW49074   2.639   0.744   4.752 -0.2924  0.1680  0.2466
15878SOL    HW149075   2.564   0.796   4.779 -0.9069 -1.1404  1.1769
15878SOL    HW249076   2.674   0.790   4.675 -1.5750  1.2100  0.2513
15879SOL     OW49077   7.687   1.614   3.288 -0.3733  0.5490  0.1894
15879SOL    HW149078   7.753   1.682   3.276 -0.3597  0.2669 -1.5782
15879SOL    HW249079   7.608   1.661   3.317 -0.2813  1.2922 -0.7308
15880SOL     OW49080   0.227   7.838   9.252 -0.1184  0.2419  0.3592
15880SOL    HW149081   0.152   7.846   9.193 -0.1734 -0.6251  0.3071
15880SOL    HW249082   0.251   7.929   9.272  0.1961  0.5719 -1.3553
15881SOL     OW49083   7.118   3.854   6.970  0.0514  0.5983  0.0600
15881SOL    HW149084   7.099   3.815   6.884  0.9683 -0.6894  0.4221
15881SOL    HW249085   7.211   3.836   6.985  0.0507  1.3593  1.0455
15882SOL     OW49086   6.302   6.435   1.772 -0.4352 -0.1287  0.1039
15882SOL    HW149087   6.312   6.387   1.690 -1.4071 -0.6906  0.3011
15882SOL    HW249088   6.390   6.438   1.809  0.2219  1.0920 -1.4674
15883SOL     OW49089   7.045   1.507   2.255  0.2090 -0.1183 -0.1780
15883SOL    HW149090   7.138   1.491   2.274  0.3156  0.4745 -0.1894
15883SOL    HW249091   7.028   1.455   2.177  0.9703  1.0687 -1.1664
15884SOL     OW49092   4.123   4.653   9.128  0.0526 -0.3344 -0.2335
15884SOL    HW149093   4.172   4.577   9.096 -0.3107  0.2605 -2.4308
15884SOL    HW249094   4.038   4.646   9.085 -0.5591  0.4834  0.7852
15885SOL     OW49095   3.270   1.810  10.440  0.3154  0.1197 -0.1221
15885SOL    HW149096   3.272   1.715  10.457  1.3217  0.1156 -0.2059
15885SOL    HW249097   3.196   1.822  10.380 -1.5541 -0.2371  1.9578
15886SOL     OW49098   5.864   6.224   1.228  0.7904 -0.7031  0.4457
15886SOL    HW149099   5.862   6.188   1.139  0.5521  0.0250  0.1524
15886SOL    HW249100   5.799   6.294   1.227  0.3085 -1.1095  1.3826
15887SOL     OW49101   3.023   5.003   4.531  0.3278 -0.1151  0.0587
15887SOL    HW149102   3.078   4.926   4.519 -1.4290 -1.2121 -1.6416
15887SOL    HW249103   3.044   5.035   4.618  3.5171 -0.5238 -0.4395
15888SOL     OW49104   6.523   2.858   7.349  0.0905 -0.4932  0.3996
15888SOL    HW149105   6.510   2.952   7.335  0.0553 -0.6629 -0.8183
15888SOL    HW249106   6.449   2.832   7.403  0.1299  0.1890  0.7996
15889SOL     OW49107   6.289   2.628   5.374  0.0153  0.0433 -0.4921
15889SOL    HW149108   6.382   2.640   5.353  0.1152 -1.0464 -0.7468
15889SOL    HW249109   6.288   2.603   5.466 -0.1700  1.5986 -0.0383
15890SOL     OW49110   0.590   3.750   6.753 -0.0203 -0.0572  0.1288
15890SOL    HW149111   0.498   3.771   6.740 -0.4163 -2.6133 -2.0675
15890SOL    HW249112   0.605   3.762   6.847 -1.8191  2.9740  0.1546
15891SOL     OW49113   4.094   7.023  10.806  0.8626 -0.1934 -0.6989
15891SOL    HW149114   4.042   7.018  10.886  1.5108  0.2031 -0.2428
15891SOL    HW249115   4.184   7.027  10.836  1.3111 -2.4131 -1.5003
15892SOL     OW49116   4.027   6.998   1.152  0.2316 -0.6348 -0.3962
15892SOL    HW149117   3.940   6.984   1.114  0.1582 -0.2622 -0.3702
15892SOL    HW249118   4.067   6.911   1.154 -0.3450 -0.8995  0.0824
15893SOL     OW49119   7.852   3.251   0.870 -0.4866  0.1885  0.1098
15893SOL    HW149120   7.768   3.264   0.825 -0.9524  0.2542  0.9802
15893SOL    HW249121   7.846   3.306   0.948  1.3477  2.1733 -1.0304
15894SOL     OW49122   0.931   4.713   0.786 -0.1923 -0.2455  0.3202
15894SOL    HW149123   1.017   4.732   0.750 -0.7912  0.7634 -0.6468
15894SOL    HW249124   0.902   4.635   0.739  0.0256 -0.3463  0.3517
15895SOL     OW49125   1.949   5.286   1.228  0.4013  0.1831  0.2079
15895SOL    HW149126   1.910   5.237   1.301 -0.6803  1.0429  0.2329
15895SOL    HW249127   1.929   5.378   1.248  0.4827  0.4611 -0.9359
15896SOL     OW49128   3.833   4.125  11.946 -0.9993 -0.5156 -0.1559
15896SOL    HW149129   3.834   4.181  12.024 -2.1826 -0.6294 -0.0404
15896SOL    HW249130   3.828   4.036  11.980  1.1383 -0.7504 -0.3362
15897SOL     OW49131   1.771   2.701  10.275  0.3119 -0.0869  0.4160
15897SOL    HW149132   1.742   2.784  10.238  0.3694  0.0423  0.6596
15897SOL    HW249133   1.864   2.714  10.294  0.5791 -0.5444 -0.4987
15898SOL     OW49134   3.915   2.426  12.268  0.5285 -0.3956 -0.0305
15898SOL    HW149135   3.890   2.507  12.223 -1.0738  0.9134  2.9135
15898SOL    HW249136   3.840   2.368  12.255  0.8458 -0.7013 -0.5243
15899SOL     OW49137   6.768   3.434   9.040  0.8228  0.1818  0.4941
15899SOL    HW149138   6.762   3.356   9.096  0.8242 -0.0861  0.1277
15899SOL    HW249139   6.831   3.490   9.085  2.6083 -1.0200 -0.3678
15900SOL     OW49140   1.388   7.922   9.323  0.2604  0.3138 -0.3650
15900SOL    HW149141   1.477   7.958   9.327  0.0102  1.1690 -1.7861
15900SOL    HW249142   1.333   7.999   9.310 -0.7450 -0.1675  0.8722
15901SOL     OW49143   6.155   0.626  10.750 -0.1244 -0.4335 -0.6163
15901SOL    HW149144   6.248   0.646  10.751  0.3787 -2.6231 -0.3344
15901SOL    HW249145   6.137   0.593  10.662 -1.1727  1.9927 -1.4187
15902SOL     OW49146   3.284   5.293  12.401  0.0732 -0.0685  0.0366
15902SOL    HW149147   3.291   5.310  12.307 -1.0241  1.2094  0.1594
15902SOL    HW249148   3.367   5.251  12.424  0.8661  0.7167 -1.2641
15903SOL     OW49149   1.601   6.622   3.540 -0.0295 -0.3536 -0.4227
15903SOL    HW149150   1.621   6.674   3.617 -1.5154  1.8390 -1.4197
15903SOL    HW249151   1.605   6.531   3.571  0.7964  0.3904  1.8472
15904SOL     OW49152   4.117   1.084   5.228  0.1143  0.5302  0.0115
15904SOL    HW149153   4.103   1.162   5.282  0.9289 -1.0500  2.6655
15904SOL    HW249154   4.048   1.024   5.254  0.8963 -0.5006 -0.2482
15905SOL     OW49155   3.794   2.467  11.893 -0.3033  0.2636 -0.0197
15905SOL    HW149156   3.700   2.451  11.887 -0.3305  0.5488 -0.3564
15905SOL    HW249157   3.834   2.380  11.890 -0.5365  0.1640 -0.2474
15906SOL     OW49158   3.967   7.233   3.074  0.3117  0.1946  0.7220
15906SOL    HW149159   3.976   7.288   3.151 -0.6861  0.0813  0.9387
15906SOL    HW249160   4.042   7.256   3.019  0.7117  0.6974  1.4588
15907SOL     OW49161   0.170   4.362   9.675 -0.2098  0.1116 -0.4451
15907SOL    HW149162   0.106   4.387   9.743 -0.2044  0.9082 -0.7290
15907SOL    HW249163   0.250   4.409   9.699 -0.1473  0.2297 -0.8875
15908SOL     OW49164   7.741   3.728   2.546 -0.6456 -0.4376  0.1754
15908SOL    HW149165   7.706   3.743   2.458  0.1356 -2.7445 -0.5841
15908SOL    HW249166   7.682   3.776   2.604 -0.5441  2.0843 -1.6344
15909SOL     OW49167   1.776   4.632  10.830 -0.0675  1.0057 -0.3012
15909SOL    HW149168   1.798   4.721  10.854  1.5103  0.7198 -0.5612
15909SOL    HW249169   1.822   4.617  10.748  1.4550 -0.6976  0.7837
15910SOL     OW49170   0.060   0.162   3.909 -0.0242 -0.4951  0.3792
15910SOL    HW149171  -0.017   0.114   3.940  0.4571 -1.6495 -0.1869
15910SOL    HW249172   0.103   0.193   3.989 -0.8007 -0.2548  0.7153
15911SOL     OW49173   1.401   1.815   2.591 -0.3979 -0.2437 -0.1234
15911SOL    HW149174   1.372   1.812   2.682 -0.1502  1.1688  0.0385
15911SOL    HW249175   1.387   1.906   2.565  1.7276 -0.0351 -0.7410
15912SOL     OW49176   7.718   1.336   5.307 -0.5577  0.3798  0.2324
15912SOL    HW149177   7.776   1.405   5.274 -2.5931  1.5294 -1.2381
15912SOL    HW249178   7.755   1.311   5.391 -0.0138  3.7299  1.1328
15913SOL     OW49179   0.608   0.064  10.402  0.0082  0.1123  0.2684
15913SOL    HW149180   0.557  -0.005  10.360 -1.1190  1.4448 -0.6129
15913SOL    HW249181   0.612   0.037  10.494  0.4715 -1.6206 -0.2202
15914SOL     OW49182   0.757   0.717   9.888  0.2395  0.0511 -0.3568
15914SOL    HW149183   0.762   0.647   9.954 -0.8797  1.1462  0.9622
15914SOL    HW249184   0.795   0.679   9.809 -0.8833 -2.2687  0.1332
15915SOL     OW49185   3.378   1.653   1.461 -0.0424  0.0571  0.0054
15915SOL    HW149186   3.294   1.653   1.414 -0.7456 -1.3707  1.1811
15915SOL    HW249187   3.413   1.741   1.447 -1.8826  0.7910 -0.2724
15916SOL     OW49188   0.551   1.020   2.431  0.1562 -0.2881  0.2218
15916SOL    HW149189   0.534   0.963   2.506 -1.2584 -1.7468 -1.1419
15916SOL    HW249190   0.629   0.983   2.390  0.3653 -0.0753  0.4276
15917SOL     OW49191   2.695   4.388   6.288  0.1194  0.4007  0.0838
15917SOL    HW149192   2.719   4.420   6.201  0.9131  0.9257  0.4801
15917SOL    HW249193   2.776   4.395   6.338 -0.7363  1.6901  1.3427
15918SOL     OW49194   5.707   6.372   5.305 -0.2214 -0.1914  0.0962
15918SOL    HW149195   5.674   6.454   5.342  3.0376 -0.1941  3.6803
15918SOL    HW249196   5.651   6.304   5.343  0.3835  0.1189  1.6122
15919SOL     OW49197   6.214   4.031   4.135 -0.2657  0.5969  0.4951
15919SOL    HW149198   6.253   4.087   4.203  0.5076 -1.3111  1.7013
15919SOL    HW249199   6.135   3.995   4.177 -0.8404  0.8693 -0.3262
15920SOL     OW49200   1.872   3.917   0.729  0.1338  0.0119 -0.2436
15920SOL    HW149201   1.779   3.897   0.734  0.2578 -1.2698 -2.1219
15920SOL    HW249202   1.915   3.844   0.774  0.2845 -0.2831 -0.8532
15921SOL     OW49203   0.808   7.869   5.583 -0.4089  0.2569 -0.2400
15921SOL    HW149204   0.774   7.780   5.596 -0.2789  0.1980 -0.2959
15921SOL    HW249205   0.899   7.864   5.613  0.6837 -0.5008 -3.3356
15922SOL     OW49206   5.159   7.334  10.950  0.1289 -0.5874  0.6856
15922SOL    HW149207   5.164   7.254  10.899 -0.9802  0.2438 -0.8165
15922SOL    HW249208   5.115   7.397  10.892 -0.5442  0.6217  2.4111
15923SOL     OW49209   3.984   6.922   2.101  0.1911 -0.3724 -0.5291
15923SOL    HW149210   3.984   6.836   2.057 -0.0807 -0.2503 -0.7710
15923SOL    HW249211   3.923   6.911   2.174 -0.4935 -0.1335 -1.0612
15924SOL     OW49212   2.839   7.085   3.574  0.0186  0.1329 -0.0694
15924SOL    HW149213   2.913   7.082   3.513 -0.6553  0.6063 -0.9425
15924SOL    HW249214   2.777   7.146   3.533 -0.5441  0.2989  0.9944
15925SOL     OW49215   0.945   1.565   7.217 -0.0946  0.1270  0.2627
15925SOL    HW149216   1.023   1.518   7.245  0.3910  0.6686 -0.1570
15925SOL    HW249217   0.978   1.639   7.166 -0.8863  0.1947 -0.1800
15926SOL     OW49218   7.369   3.794   7.034 -0.7111  0.5177 -0.3735
15926SOL    HW149219   7.409   3.849   6.967 -0.3988 -0.5263 -1.0660
15926SOL    HW249220   7.435   3.728   7.054 -1.4153 -0.1597 -0.2337
15927SOL     OW49221   1.528   1.348   9.584  0.1891 -0.2325  0.0773
15927SOL    HW149222   1.468   1.280   9.553 -1.6651  0.9320  0.9673
15927SOL    HW249223   1.471   1.417   9.618  1.9232  2.4215 -1.9538
15928SOL     OW49224   4.818   7.885   5.058 -0.5115  0.1377  0.2209
15928SOL    HW149225   4.801   7.794   5.081 -0.9651 -0.2991 -1.7022
15928SOL    HW249226   4.895   7.909   5.109 -1.1380 -0.8912  1.7377
15929SOL     OW49227   2.275   4.947   7.139 -0.3109 -0.0505 -0.0299
15929SOL    HW149228   2.349   4.906   7.185 -0.9543 -0.1831  0.9024
15929SOL    HW249229   2.209   4.878   7.134 -0.3245  0.0197 -1.0095
15930SOL     OW49230   5.181   0.933   5.942  0.2454  0.2156 -0.1477
15930SOL    HW149231   5.197   0.894   5.856 -0.5042  1.1935 -0.7438
15930SOL    HW249232   5.183   1.027   5.927 -2.1949  0.4300  0.4411
15931SOL     OW49233   6.964   4.566   0.173  0.2488  0.3819  0.7510
15931SOL    HW149234   7.051   4.539   0.142  0.8667  3.0028 -0.0777
15931SOL    HW249235   6.907   4.554   0.097  0.6656  1.8397  0.1591
15932SOL     OW49236   5.800   5.977  11.977 -0.0638 -0.0435 -0.0958
15932SOL    HW149237   5.822   6.070  11.975 -0.3148  0.1931  2.9413
15932SOL    HW249238   5.715   5.971  11.933 -0.7153  1.4421  0.8884
15933SOL     OW49239   6.375   3.506   9.415  0.0181  0.0818 -0.1095
15933SOL    HW149240   6.334   3.585   9.383  0.3356  1.1579  1.9517
15933SOL    HW249241   6.469   3.522   9.406  0.0799 -0.1796  0.0360
15934SOL     OW49242   6.543   0.666   5.656  0.4484  0.3366  0.3549
15934SOL    HW149243   6.489   0.599   5.697  4.0055 -2.0117  1.6766
15934SOL    HW249244   6.550   0.638   5.564  0.4543 -0.0506  0.4743
15935SOL     OW49245   0.090   4.449  11.945  0.3993  0.1554  0.4362
15935SOL    HW149246   0.169   4.395  11.935 -0.5161 -1.0647 -0.5318
15935SOL    HW249247   0.111   4.530  11.899  0.7406 -0.5652 -0.7342
15936SOL     OW49248   4.444   7.665  11.422 -0.0417  0.1415 -0.0248
15936SOL    HW149249   4.418   7.754  11.446  1.1687  0.3257  0.6964
15936SOL    HW249250   4.538   7.670  11.410 -0.1646 -0.7134 -1.5749
15937SOL     OW49251   3.531   5.197   7.185 -0.6660 -0.0196  0.6762
15937SOL    HW149252   3.589   5.128   7.151  1.9164  2.2461  0.1176
15937SOL    HW249253   3.451   5.189   7.134  1.1025 -0.1003 -2.3149
15938SOL     OW49254   0.154   4.726   3.015 -0.0020  0.6429 -0.2715
15938SOL    HW149255   0.062   4.728   3.043 -0.6649  2.3161 -2.2812
15938SOL    HW249256   0.150   4.742   2.921  2.2214 -2.1198 -0.9714
15939SOL     OW49257   0.168   1.174   0.252 -0.5301 -0.1813  0.2459
15939SOL    HW149258   0.169   1.167   0.157 -0.1917 -1.0532  0.3100
15939SOL    HW249259   0.260   1.165   0.278 -0.6113  0.1229  0.6536
15940SOL     OW49260   4.673   1.960   3.538  0.1372 -0.0833 -0.1959
15940SOL    HW149261   4.635   2.023   3.477 -0.3869 -0.9855 -0.8194
15940SOL    HW249262   4.600   1.933   3.594  0.2505 -0.5076 -0.2525
15941SOL     OW49263   1.512   4.300  10.533  0.6077  0.0387  0.4370
15941SOL    HW149264   1.489   4.349  10.612  2.1011  1.2410  0.1731
15941SOL    HW249265   1.440   4.318  10.472 -0.2552 -0.4106  1.2964
15942SOL     OW49266   2.261   7.593   0.961 -0.1115  0.1897 -0.2863
15942SOL    HW149267   2.327   7.650   0.922  1.4811 -0.5571  1.1609
15942SOL    HW249268   2.236   7.533   0.891  1.0402  0.2480 -0.7639
15943SOL     OW49269   3.891   1.603   2.241 -0.0497  0.1211 -0.0963
15943SOL    HW149270   3.983   1.625   2.259  0.2680  0.3207 -1.8344
15943SOL    HW249271   3.892   1.509   2.223 -0.2604  0.0519  0.2386
15944SOL     OW49272   5.827   7.801   8.639  0.2669 -0.2921 -0.0964
15944SOL    HW149273   5.778   7.722   8.617  1.5513 -1.1854  0.1558
15944SOL    HW249274   5.892   7.811   8.569  1.9945 -1.1146  1.2963
15945SOL     OW49275   0.179   6.978  10.549  0.3439  0.4673  0.2666
15945SOL    HW149276   0.256   6.939  10.508  0.7971 -1.6057  2.8273
15945SOL    HW249277   0.210   7.013  10.632 -0.8069  3.1846 -0.3386
15946SOL     OW49278   5.720   1.346   3.179  0.3313  0.3102 -0.8463
15946SOL    HW149279   5.706   1.283   3.109 -1.9052  1.1054 -1.1966
15946SOL    HW249280   5.723   1.293   3.259  1.9031 -0.5064 -1.4098
15947SOL     OW49281   6.462   6.747   5.210 -0.5818  0.1458  0.2647
15947SOL    HW149282   6.508   6.789   5.283 -1.2439  1.3623  0.0042
15947SOL    HW249283   6.531   6.729   5.147 -0.1927  0.3089  0.6335
15948SOL     OW49284   0.306   3.190  10.432  0.1231 -0.1191  0.1361
15948SOL    HW149285   0.290   3.258  10.497 -0.8498 -1.4794  1.3715
15948SOL    HW249286   0.221   3.175  10.391  0.4803 -0.1156 -0.6342
15949SOL     OW49287   4.334   6.220   0.195  0.3916 -0.1501 -0.2046
15949SOL    HW149288   4.420   6.236   0.233  1.1071 -1.3996 -1.2164
15949SOL    HW249289   4.301   6.307   0.171  1.2116  0.3650  0.5106
15950SOL     OW49290   0.921   5.424  12.142 -0.5532  0.4914  0.3562
15950SOL    HW149291   0.955   5.504  12.102 -0.9257 -0.1279 -1.2591
15950SOL    HW249292   0.998   5.372  12.163 -0.3726  0.3504 -0.6123
15951SOL     OW49293   3.026   0.081   4.003  0.1096  0.0872 -0.0563
15951SOL    HW149294   3.118   0.106   4.009 -0.1289  0.9570  0.1223
15951SOL    HW249295   3.007   0.084   3.909  0.3403 -0.3854 -0.1183
15952SOL     OW49296   4.226   4.277  10.658  0.5814  0.1828  0.0684
15952SOL    HW149297   4.186   4.269  10.744  0.9834 -0.8503  0.1791
15952SOL    HW249298   4.161   4.240  10.598  0.3116  0.8793 -0.0677
15953SOL     OW49299   3.960   6.049  10.850 -0.4768  0.1904  0.7198
15953SOL    HW149300   3.916   6.128  10.821  2.0762  1.7984  0.9294
15953SOL    HW249301   3.972   5.997  10.770  0.5150  1.4647  0.0054
15954SOL     OW49302   4.254   0.665   7.628 -0.4404  0.0589  0.1202
15954SOL    HW149303   4.162   0.666   7.656 -0.3127  2.0229  0.6204
15954SOL    HW249304   4.266   0.579   7.587 -2.5038 -0.2256  0.0168
15955SOL     OW49305   1.172   3.297  10.781 -0.5449 -0.5257 -0.2443
15955SOL    HW149306   1.180   3.392  10.789  2.0633 -0.7210  0.2901
15955SOL    HW249307   1.169   3.266  10.871  2.8231 -1.1142 -0.1984
15956SOL     OW49308   1.103   2.812   8.975  0.2736 -0.5428 -0.3857
15956SOL    HW149309   1.028   2.818   9.035 -1.3434  0.8188 -2.3881
15956SOL    HW249310   1.109   2.719   8.953  1.0647 -1.1267  1.9486
15957SOL     OW49311   2.105   7.868  12.276 -0.3554 -0.2120  0.4587
15957SOL    HW149312   2.105   7.858  12.371 -2.2578  0.2924  0.5535
15957SOL    HW249313   2.172   7.807  12.245 -0.2596 -0.9686  2.0568
15958SOL     OW49314   6.190   5.427   6.282 -0.4929  0.0249  0.2179
15958SOL    HW149315   6.216   5.499   6.224  0.2826  0.1343  0.6914
15958SOL    HW249316   6.199   5.348   6.229 -0.1242  0.1587  0.0826
15959SOL     OW49317   5.517   6.489   6.974  0.1234  0.2891 -0.6459
15959SOL    HW149318   5.598   6.525   6.939  0.8497 -0.1138  0.5378
15959SOL    HW249319   5.531   6.394   6.975  0.1853  0.2901  0.7978
15960SOL     OW49320   0.937   4.546   7.550  0.0659  0.0359  0.0770
15960SOL    HW149321   0.975   4.592   7.475 -0.4575 -0.2334 -0.3629
15960SOL    HW249322   1.011   4.527   7.607  0.5161 -0.0558 -0.5361
15961SOL     OW49323   5.193   7.132   2.043 -0.3809 -0.1379  0.3122
15961SOL    HW149324   5.177   7.180   2.124 -2.2844 -0.8855  0.4132
15961SOL    HW249325   5.272   7.081   2.061  0.4654  1.3032  0.9176
15962SOL     OW49326   6.059   2.020   0.888  0.8629 -0.0429 -0.5805
15962SOL    HW149327   6.112   2.100   0.882  0.1521  0.5744  0.7716
15962SOL    HW249328   6.121   1.952   0.915  0.6593  1.3340  4.4755
15963SOL     OW49329   4.195   2.786  11.369  0.2654 -0.2789  0.2063
15963SOL    HW149330   4.265   2.849  11.350 -0.4359  1.0372  1.6844
15963SOL    HW249331   4.125   2.808  11.307  1.0378 -1.4502 -1.1226
15964SOL     OW49332   2.242   5.953   3.147  0.0798 -0.2715 -0.4644
15964SOL    HW149333   2.161   5.995   3.118  0.0217 -0.8582 -1.1994
15964SOL    HW249334   2.244   5.870   3.099  1.4804  0.0497 -1.0236
15965SOL     OW49335   3.380   6.896   5.900  0.2478  0.4093  0.0689
15965SOL    HW149336   3.344   6.981   5.923  0.5531  0.2866  1.0355
15965SOL    HW249337   3.466   6.893   5.942  1.3356  0.6032 -2.0129
15966SOL     OW49338   2.194   2.277   3.577 -0.5163 -0.2862  0.6520
15966SOL    HW149339   2.111   2.314   3.548 -0.6704 -0.4914  0.8295
15966SOL    HW249340   2.200   2.302   3.669  0.1545  0.6991  0.3563
15967SOL     OW49341   0.429   4.552   0.836  0.2928  0.0411 -0.2371
15967SOL    HW149342   0.478   4.563   0.755  0.1159 -0.9985 -0.5065
15967SOL    HW249343   0.421   4.640   0.872  1.6678  0.3351 -0.5847
15968SOL     OW49344   7.243   2.296   1.220 -0.2302 -0.2699 -0.1719
15968SOL    HW149345   7.182   2.323   1.152 -1.2390  0.4137  0.9616
15968SOL    HW249346   7.234   2.362   1.289  1.1422 -0.6484  0.4197
15969SOL     OW49347   6.673   5.479   9.402 -0.6144 -0.3625 -0.2647
15969SOL    HW149348   6.664   5.566   9.365 -1.4627  0.0688  0.8981
15969SOL    HW249349   6.652   5.490   9.495 -1.2525 -1.8811 -0.1952
15970SOL     OW49350   6.770   6.506   1.723 -0.6363 -0.1945 -0.1124
15970SOL    HW149351   6.748   6.598   1.709  1.0355  0.2484  0.0369
15970SOL    HW249352   6.861   6.506   1.751 -0.8512 -1.8437  0.7394
15971SOL     OW49353   3.688   5.481   2.509  0.0812 -0.2986  0.4780
15971SOL    HW149354   3.665   5.391   2.531 -1.2424 -0.0888  0.0733
15971SOL    HW249355   3.621   5.534   2.553 -0.3460  0.3414 -0.8718
15972SOL     OW49356   2.620   7.774   5.646  0.0172 -0.0473 -1.0172
15972SOL    HW149357   2.704   7.746   5.612 -0.2301 -4.4209  1.2819
15972SOL    HW249358   2.631   7.774   5.741 -2.3417  0.1688 -0.6716
15973SOL     OW49359   2.902   2.369   7.395 -0.0952  0.2691  0.3397
15973SOL    HW149360   2.994   2.391   7.378  0.2979  0.4100  2.3362
15973SOL    HW249361   2.899   2.274   7.391  0.5165  0.1580  1.7179
15974SOL     OW49362   2.481   1.783   1.829 -0.2777 -0.0083  0.0858
15974SOL    HW149363   2.407   1.742   1.785  1.5256 -2.1865 -1.1253
15974SOL    HW249364   2.466   1.877   1.818 -3.2322 -0.3124  0.6457
15975SOL     OW49365   2.782   4.331  10.170 -0.4597  0.4109 -0.6046
15975SOL    HW149366   2.832   4.292  10.098 -0.9604  1.1747 -1.3746
15975SOL    HW249367   2.830   4.411  10.191  0.9696 -0.8723  1.4447
15976SOL     OW49368   1.529   2.032  10.700 -0.8220  0.0646 -0.1460
15976SOL    HW149369   1.528   2.017  10.795 -1.2075 -0.8585 -0.2786
15976SOL    HW249370   1.452   2.087  10.684 -0.1534  1.1156  0.1987
15977SOL     OW49371   1.202   7.767   0.130  0.3106 -0.0136  0.0643
15977SOL    HW149372   1.164   7.710   0.198 -0.2106  0.1413 -0.0945
15977SOL    HW249373   1.166   7.854   0.149  0.5499  0.1251 -0.1179
15978SOL     OW49374   7.025   6.254   0.646 -0.6752 -0.1237 -0.3614
15978SOL    HW149375   6.936   6.247   0.613 -0.5624 -1.8995 -0.3617
15978SOL    HW249376   7.069   6.312   0.584 -0.5297 -3.0811 -3.2751
15979SOL     OW49377   0.335   7.487   3.281  1.0499 -0.3062  0.5808
15979SOL    HW149378   0.387   7.481   3.201 -0.4656  1.4713 -0.6549
15979SOL    HW249379   0.397   7.473   3.352  2.4408 -2.0307 -0.8883
15980SOL     OW49380   2.823   2.122   8.695 -0.1018 -0.6534 -0.2262
15980SOL    HW149381   2.865   2.163   8.770 -1.0431 -1.4914  0.7862
15980SOL    HW249382   2.780   2.193   8.649  2.1478  0.2087 -1.1725
15981SOL     OW49383   2.946   0.363   6.182 -0.3412 -0.3388  0.2740
15981SOL    HW149384   2.866   0.415   6.191 -1.0763 -1.5014  0.5534
15981SOL    HW249385   3.014   0.419   6.220 -1.0276  0.6184  0.1376
15982SOL     OW49386   6.780   6.418  10.607 -0.1159 -0.4981  0.1195
15982SOL    HW149387   6.734   6.464  10.538 -1.3829  0.0910  1.3058
15982SOL    HW249388   6.861   6.387  10.566 -0.3887  0.6367 -1.3527
15983SOL     OW49389   0.864   2.026  11.142  0.1745  0.2207 -0.1057
15983SOL    HW149390   0.823   2.042  11.227 -0.7762  0.5510 -0.6099
15983SOL    HW249391   0.799   2.055  11.078  1.1026  0.5143 -0.9439
15984SOL     OW49392   4.878   2.574   4.618  0.2948  0.7317  0.5284
15984SOL    HW149393   4.948   2.632   4.590  1.2677 -0.0248  1.3403
15984SOL    HW249394   4.890   2.565   4.712 -1.2409  1.0265  0.7856
15985SOL     OW49395   2.459   1.057   6.600  0.3887 -0.0267 -0.1502
15985SOL    HW149396   2.373   1.030   6.632 -0.2877  0.2708 -1.6388
15985SOL    HW249397   2.505   1.088   6.679 -1.1276  0.4950  0.5673
15986SOL     OW49398   1.980   2.443   1.160 -0.2291  0.0214 -0.4857
15986SOL    HW149399   1.901   2.496   1.161 -1.5304 -1.8353  1.2950
15986SOL    HW249400   1.961   2.372   1.098  0.8860  0.6405 -1.6151
15987SOL     OW49401   0.996   4.476   0.213  0.0100 -0.4943  0.3150
15987SOL    HW149402   0.969   4.533   0.141  0.2351  0.2520  0.8122
15987SOL    HW249403   0.932   4.493   0.282  1.1314  0.5379  1.1338
15988SOL     OW49404   4.614   2.806  12.188 -0.0015  0.1844  0.3402
15988SOL    HW149405   4.665   2.727  12.202 -0.3286  0.1910  1.7281
15988SOL    HW249406   4.526   2.775  12.165 -0.1077  0.1426  0.7997
15989SOL     OW49407   7.665   1.902   7.804  0.1891  0.3346  0.2631
15989SOL    HW149408   7.645   1.809   7.798 -2.2840  0.7917  0.3169
15989SOL    HW249409   7.712   1.912   7.886 -0.0838 -0.7835  0.5670
15990SOL     OW49410   1.723   4.317   9.689  0.1702 -0.1638 -0.5182
15990SOL    HW149411   1.628   4.304   9.691  0.0402  0.4377 -1.6690
15990SOL    HW249412   1.757   4.254   9.752 -0.8666 -1.6405 -1.3569
15991SOL     OW49413   6.567   2.702   7.584  0.0481 -0.2843  0.3479
15991SOL    HW149414   6.478   2.731   7.561 -0.3272 -0.6213  1.3209
15991SOL    HW249415   6.553   2.620   7.632  0.7786  0.3649  1.7315
15992SOL     OW49416   5.811   1.584   4.285  0.1507  0.6674  0.3635
15992SOL    HW149417   5.837   1.662   4.237 -0.4411 -0.1226 -1.3199
15992SOL    HW249418   5.720   1.568   4.259  0.1753 -0.4206  0.8739
15993SOL     OW49419   0.606   1.446   4.329  0.0258  1.2782 -0.2144
15993SOL    HW149420   0.673   1.511   4.348  0.9401  0.1543  0.5454
15993SOL    HW249421   0.640   1.396   4.255 -1.2753  2.4650 -1.6797
15994SOL     OW49422   7.913   5.612   2.742  0.6056  0.1445  0.5061
15994SOL    HW149423   7.886   5.522   2.726  1.0062  0.1201 -0.0437
15994SOL    HW249424   7.966   5.607   2.821  1.1278 -0.1952  0.1374
15995SOL     OW49425   2.845   5.427   4.091  0.1402 -0.1244 -0.4644
15995SOL    HW149426   2.880   5.474   4.167  1.0773  0.3064 -1.1322
15995SOL    HW249427   2.756   5.461   4.080  1.1474  2.4459 -1.6149
15996SOL     OW49428   3.824   4.105   6.330  0.1491 -0.0113 -0.0405
15996SOL    HW149429   3.912   4.136   6.310  0.8450 -0.3561  2.2377
15996SOL    HW249430   3.832   4.059   6.414 -2.0547 -0.7526 -0.1495
15997SOL     OW49431   2.396   5.335   7.034  0.1421  0.2213 -0.4016
15997SOL    HW149432   2.431   5.303   7.117 -2.1211 -0.4054  0.3907
15997SOL    HW249433   2.329   5.398   7.059 -0.2748  0.3665 -1.7761
15998SOL     OW49434   7.707   7.240   4.039 -0.3598 -0.2386  0.1311
15998SOL    HW149435   7.623   7.279   4.015  0.3529  1.0079 -0.4099
15998SOL    HW249436   7.761   7.249   3.961  0.6620  0.0624  0.8553
15999SOL     OW49437   0.495   3.942   8.020 -0.5774 -0.3783 -0.0317
15999SOL    HW149438   0.547   3.956   8.099 -1.9168 -0.0937  0.8204
15999SOL    HW249439   0.508   3.850   7.999  0.8785 -0.1344 -0.2923
16000SOL     OW49440   0.349   1.698   5.600 -0.0681  0.2557  0.2296
16000SOL    HW149441   0.268   1.742   5.575  0.7939  0.3266 -2.8751
16000SOL    HW249442   0.418   1.762   5.581  0.8792 -0.6335  0.5452
16001SOL     OW49443   0.692   5.920  12.292  0.3495  0.0521 -0.3738
16001SOL    HW149444   0.741   5.839  12.307  1.0030  0.3931 -0.6639
16001SOL    HW249445   0.737   5.963  12.220 -2.0952 -1.0420 -2.7874
16002SOL     OW49446   0.739   0.804   4.168  0.6948 -0.5640 -0.0281
16002SOL    HW149447   0.649   0.779   4.148  1.6953 -2.3072 -3.0401
16002SOL    HW249448   0.790   0.725   4.150  2.8870  0.4852  1.2204
16003SOL     OW49449   0.794   5.255   0.414  0.4608  0.3005 -0.3318
16003SOL    HW149450   0.760   5.339   0.445 -0.9589  0.6428 -2.5614
16003SOL    HW249451   0.795   5.200   0.492 -0.1830  1.8838  0.8611
16004SOL     OW49452   5.262   2.152   9.134 -0.0308 -0.0104 -0.1627
16004SOL    HW149453   5.341   2.206   9.133  1.1937 -1.6222 -3.5406
16004SOL    HW249454   5.191   2.215   9.148  1.6016  1.9036 -0.0319
16005SOL     OW49455   5.710   4.016   8.851  0.4505  0.0384 -0.6493
16005SOL    HW149456   5.677   4.096   8.891 -0.5759 -0.3397 -0.7130
16005SOL    HW249457   5.634   3.959   8.845  1.0641 -0.7560 -1.0702
16006SOL     OW49458   2.658   6.249   1.650  0.8244  0.5007  0.5740
16006SOL    HW149459   2.711   6.326   1.673  0.6668  0.6362  0.4880
16006SOL    HW249460   2.602   6.280   1.579  2.1929 -0.2532 -0.8991
16007SOL     OW49461   2.345   3.134   4.527  0.4096 -0.1904 -0.6764
16007SOL    HW149462   2.387   3.180   4.454  1.6063 -0.9157 -0.4756
16007SOL    HW249463   2.414   3.079   4.563  0.5423  1.8472  2.5262
16008SOL     OW49464   5.702   4.453   3.963 -0.0077 -0.0915  0.3616
16008SOL    HW149465   5.762   4.528   3.956 -0.4521  0.1116 -2.7000
16008SOL    HW249466   5.629   4.486   4.015  0.1397  1.3916 -0.3069
16009SOL     OW49467   7.724   7.035   6.894  0.3821  0.7781 -0.4963
16009SOL    HW149468   7.818   7.040   6.915  0.2361  0.8057  0.1658
16009SOL    HW249469   7.720   6.973   6.821  0.7344 -0.7407  0.7063
16010SOL     OW49470   4.019   7.926   8.612 -0.1186  0.8681 -0.6023
16010SOL    HW149471   4.049   7.840   8.641 -0.8873  0.9278  0.4742
16010SOL    HW249472   4.069   7.945   8.533 -0.4146 -0.8602 -1.2442
16011SOL     OW49473   7.245   7.601  12.357  0.2878  0.5161 -0.3164
16011SOL    HW149474   7.259   7.594  12.452 -0.7400 -1.0456 -0.2497
16011SOL    HW249475   7.150   7.607  12.347  0.2878 -0.7187 -1.2887
16012SOL     OW49476   7.268   6.043   7.026 -0.2057  0.3954 -0.2384
16012SOL    HW149477   7.342   6.055   7.084 -0.7482  2.0299  0.1492
16012SOL    HW249478   7.191   6.059   7.081 -0.8187 -0.3311 -0.8569
16013SOL     OW49479   3.891   2.896  12.008 -0.1791 -0.7790 -0.4665
16013SOL    HW149480   3.933   2.813  12.031 -0.5197 -0.7590  0.2755
16013SOL    HW249481   3.797   2.879  12.022 -0.1316  0.2837  1.6476
16014SOL     OW49482   4.524   1.459   2.903  0.5214 -0.1442  0.0937
16014SOL    HW149483   4.522   1.363   2.894 -0.5701 -0.1181 -0.1437
16014SOL    HW249484   4.603   1.486   2.857  0.1751 -0.8328 -0.9400
16015SOL     OW49485   6.907   1.310  11.670  0.1743 -0.1120  0.6533
16015SOL    HW149486   6.982   1.319  11.611 -0.7330 -0.3911 -0.5849
16015SOL    HW249487   6.842   1.371  11.635  0.0359  0.6091  2.0955
16016SOL     OW49488   0.557   5.319  10.920 -0.6418  0.0938 -0.1253
16016SOL    HW149489   0.510   5.242  10.889 -0.5578 -0.2398  0.5675
16016SOL    HW249490   0.644   5.311  10.880 -0.2588 -0.7743  0.8352
16017SOL     OW49491   1.799   3.006  10.376  0.1996 -0.3705  0.3672
16017SOL    HW149492   1.732   3.007  10.308 -0.5993 -2.6304  1.0173
16017SOL    HW249493   1.775   3.078  10.434 -0.5942  0.0043 -0.4060
16018SOL     OW49494   2.693   0.759   3.463 -0.0997 -0.3847 -0.7000
16018SOL    HW149495   2.678   0.717   3.379  1.7816  0.8434 -1.7030
16018SOL    HW249496   2.650   0.844   3.456  0.8547  0.1033 -0.7982
16019SOL     OW49497   6.618   7.059   4.606 -0.0270 -0.0285  0.5277
16019SOL    HW149498   6.677   7.134   4.596 -0.8457  0.4782 -0.8192
16019SOL    HW249499   6.554   7.069   4.535 -0.2683 -1.9080  0.4214
16020SOL     OW49500   7.028   3.184  10.346 -0.0989 -0.2886 -0.4977
16020SOL    HW149501   7.096   3.117  10.344 -0.8028 -1.1007  1.1717
16020SOL    HW249502   6.947   3.137  10.326 -0.9718 -0.5434  3.0092
16021SOL     OW49503   6.583   5.076   8.924  0.3751  0.0836 -0.2416
16021SOL    HW149504   6.671   5.109   8.905 -0.1975  0.4013 -2.7075
16021SOL    HW249505   6.528   5.154   8.932 -0.0288 -0.1471 -0.6899
16022SOL     OW49506   6.648   4.394   5.896 -0.5339 -0.1004  0.2745
16022SOL    HW149507   6.589   4.381   5.970 -1.9277 -1.0705 -0.9576
16022SOL    HW249508   6.709   4.320   5.900  0.1176  0.4516  1.0599
16023SOL     OW49509   5.507   0.624   2.757 -0.1264 -0.1862 -0.2951
16023SOL    HW149510   5.526   0.530   2.748 -2.1908 -0.6845 -0.0552
16023SOL    HW249511   5.471   0.650   2.672 -0.4504  0.1300 -0.0679
16024SOL     OW49512   7.020   2.864   9.400  0.1005 -0.0851 -0.2437
16024SOL    HW149513   6.980   2.908   9.476  1.8090 -1.3517  1.5061
16024SOL    HW249514   6.999   2.772   9.413 -0.3313 -0.2284 -1.8497
16025SOL     OW49515   0.963   7.294  11.082  0.6066 -0.1621  0.8550
16025SOL    HW149516   0.905   7.254  11.017 -0.0425  0.7548  0.8429
16025SOL    HW249517   0.927   7.267  11.167 -0.6082  1.3901  0.8716
16026SOL     OW49518   4.514   3.037   9.969  0.3153 -0.2040 -0.6920
16026SOL    HW149519   4.512   2.994   9.884  2.1369 -0.4987 -0.6257
16026SOL    HW249520   4.604   3.026  10.000  0.0435  1.0452  0.6878
16027SOL     OW49521   6.487   0.082  10.980 -0.3573 -0.4802 -0.6334
16027SOL    HW149522   6.569   0.078  10.931  0.3937 -0.1000  0.5451
16027SOL    HW249523   6.485   0.001  11.031 -0.7579 -0.5199 -0.7025
16028SOL     OW49524   5.544   6.564   2.366 -0.2408  0.1891  0.2529
16028SOL    HW149525   5.627   6.519   2.352 -0.3056  0.4984 -1.2077
16028SOL    HW249526   5.569   6.654   2.386 -0.1662 -0.1651  1.9095
16029SOL     OW49527   2.907   5.918   1.871 -0.2207  0.2245  0.2762
16029SOL    HW149528   2.896   6.004   1.830 -2.7545 -0.6729 -1.1741
16029SOL    HW249529   2.942   5.863   1.800 -1.1888 -0.5289  0.3722
16030SOL     OW49530   0.450   3.230   2.914  0.0851  0.3244 -0.6890
16030SOL    HW149531   0.435   3.190   2.828 -0.4210  1.3690 -1.1010
16030SOL    HW249532   0.495   3.312   2.894 -1.5064  1.3812 -0.0975
16031SOL     OW49533   7.948   6.318   7.696 -0.0257 -0.0050  0.7561
16031SOL    HW149534   8.018   6.281   7.642  0.5766 -0.3535  1.7374
16031SOL    HW249535   7.874   6.330   7.637  0.9992  0.7628 -0.4080
16032SOL     OW49536   3.114   5.028   2.247 -0.5640 -0.3982  0.0861
16032SOL    HW149537   3.204   5.003   2.266 -0.1968 -0.2874 -1.3689
16032SOL    HW249538   3.062   4.985   2.314  0.6136  0.0126  1.3125
16033SOL     OW49539   2.733   1.238  12.159  0.7240 -0.7681 -0.4595
16033SOL    HW149540   2.815   1.195  12.136  0.0192 -2.2177 -0.4184
16033SOL    HW249541   2.667   1.169  12.152 -0.7756  0.7144 -2.0543
16034SOL     OW49542   2.289   4.517   7.077 -0.2008  0.5569  0.3059
16034SOL    HW149543   2.268   4.607   7.052  1.2878  0.5557 -1.0926
16034SOL    HW249544   2.348   4.486   7.008 -0.6359 -1.4792  0.7873
16035SOL     OW49545   4.106   0.647   8.039  0.0896  0.4670  0.4849
16035SOL    HW149546   4.078   0.555   8.043  0.5931  0.2972  0.2027
16035SOL    HW249547   4.201   0.643   8.024  0.1097  1.0346  0.4256
16036SOL     OW49548   0.317   4.094   1.575 -0.5178  0.4071 -0.1407
16036SOL    HW149549   0.273   4.127   1.653  0.6839  0.8088  0.3893
16036SOL    HW249550   0.410   4.111   1.590 -0.1685 -0.3521 -1.2550
16037SOL     OW49551   6.431   1.706   0.113  0.0648  0.0096 -0.3332
16037SOL    HW149552   6.382   1.730   0.034  0.0563  1.1483  0.0009
16037SOL    HW249553   6.519   1.738   0.097 -0.0199  0.5560  0.2570
16038SOL     OW49554   4.381   2.323   8.020  0.2840  0.1787 -0.0177
16038SOL    HW149555   4.364   2.369   8.103  0.4863  2.5706 -1.2163
16038SOL    HW249556   4.476   2.327   8.009  0.3198 -0.7047 -0.0723
16039SOL     OW49557   1.928   2.315  10.390  0.1572 -0.0334  0.5219
16039SOL    HW149558   1.954   2.232  10.350 -1.4667  0.1380 -1.0108
16039SOL    HW249559   2.005   2.371  10.384  0.4599 -0.5774 -0.8765
16040SOL     OW49560   6.668   3.753   1.166 -0.1049 -0.2059  0.4591
16040SOL    HW149561   6.681   3.695   1.091 -0.7316 -1.3889  1.2434
16040SOL    HW249562   6.669   3.695   1.242  1.4660  1.0594  1.4871
16041SOL     OW49563   4.020   0.510  11.313  0.4185 -0.4126  0.1351
16041SOL    HW149564   4.096   0.512  11.256 -1.0474 -2.2222 -2.0362
16041SOL    HW249565   4.005   0.602  11.336  1.2515  0.3725 -2.1685
16042SOL     OW49566   1.404   1.825   1.085 -0.1374 -0.1754  0.6016
16042SOL    HW149567   1.337   1.800   1.148 -0.1691 -1.3649  0.1063
16042SOL    HW249568   1.406   1.754   1.021 -0.2516  1.0893 -0.8674
16043SOL     OW49569   1.544   1.910   0.513  0.2810 -0.7002  0.4204
16043SOL    HW149570   1.563   1.986   0.568 -1.1145 -0.0237  0.0202
16043SOL    HW249571   1.577   1.934   0.426 -1.9681  0.3704 -0.2135
16044SOL     OW49572   7.557   1.785   6.238  0.1874 -0.3071  0.3491
16044SOL    HW149573   7.528   1.790   6.329  0.1991 -0.6576  0.3739
16044SOL    HW249574   7.477   1.773   6.187 -0.4068  4.0257 -0.1432
16045SOL     OW49575   3.511   6.150  11.251 -0.1683 -0.7012  0.0684
16045SOL    HW149576   3.438   6.180  11.305  0.9416  0.4184  1.0059
16045SOL    HW249577   3.589   6.180  11.297  0.8845 -1.3141 -1.2354
16046SOL     OW49578   4.042   4.205  10.089 -0.2597 -0.2575  0.0998
16046SOL    HW149579   4.135   4.188  10.107 -0.6370 -1.4996  1.0161
16046SOL    HW249580   4.007   4.237  10.171 -0.8881 -0.9591  0.1172
16047SOL     OW49581   7.642   1.427   6.324  0.0068 -0.2736  0.7175
16047SOL    HW149582   7.616   1.472   6.404  0.1309 -0.7712  1.0398
16047SOL    HW249583   7.718   1.375   6.349 -0.7722 -1.5094  0.6273
16048SOL     OW49584   1.023   0.175  11.177  0.3554 -0.1902  0.2184
16048SOL    HW149585   1.020   0.198  11.270  1.3156 -0.7692  0.4065
16048SOL    HW249586   1.116   0.181  11.154  0.0254  0.8947 -0.9641
16049SOL     OW49587   0.040   1.667   6.922  0.1067  0.0392 -0.2852
16049SOL    HW149588  -0.004   1.624   6.996  1.4850 -0.3068  0.3727
16049SOL    HW249589   0.083   1.743   6.962 -0.7051  0.9658 -1.1009
16050SOL     OW49590   1.843   1.058   2.743 -0.2314  0.3314  0.1964
16050SOL    HW149591   1.904   1.117   2.786  0.9907  1.4637 -2.8291
16050SOL    HW249592   1.797   1.113   2.679  0.4376 -1.7387 -2.2488
16051SOL     OW49593   7.948   3.506  10.890 -0.5509 -0.3378 -0.1357
16051SOL    HW149594   7.980   3.440  10.951 -1.8346  0.3866  1.3827
16051SOL    HW249595   7.980   3.477  10.805  0.6797 -1.7715  0.7626
16052SOL     OW49596   6.547   4.598   8.657  0.1713 -0.4666 -0.2124
16052SOL    HW149597   6.619   4.638   8.706 -0.4502  0.9963 -0.4362
16052SOL    HW249598   6.579   4.591   8.567  0.7490 -1.7327  0.0592
16053SOL     OW49599   2.340   2.214   6.051  0.5488  0.1596  0.2802
16053SOL    HW149600   2.409   2.230   5.987  0.2175  0.5229  0.0113
16053SOL    HW249601   2.259   2.241   6.007  0.3190  0.4165  0.8454
16054SOL     OW49602   3.607   2.883   8.703 -0.0799 -0.0267  0.0100
16054SOL    HW149603   3.556   2.841   8.772 -1.0559  0.7420 -0.2305
16054SOL    HW249604   3.657   2.951   8.747  1.6741 -1.5153  0.4389
16055SOL     OW49605   4.286   6.954   5.070  0.8174 -0.1827  0.1866
16055SOL    HW149606   4.320   6.896   5.002 -0.2328  0.4022 -0.8665
16055SOL    HW249607   4.195   6.969   5.046  0.9706  1.6638  0.5896
16056SOL     OW49608   2.592   5.084   7.489 -0.1665 -0.5165 -0.2563
16056SOL    HW149609   2.588   4.988   7.487  0.2538 -0.5231 -1.1203
16056SOL    HW249610   2.654   5.107   7.420 -0.0122  0.3683  0.1633
16057SOL     OW49611   1.500   2.282   5.015  0.0848 -0.0262 -0.8805
16057SOL    HW149612   1.462   2.307   5.100 -0.3521 -0.1500 -1.0378
16057SOL    HW249613   1.580   2.334   5.009 -0.6680  1.1686 -1.0787
16058SOL     OW49614   0.884   1.933   2.785  0.3917 -0.2195 -0.3981
16058SOL    HW149615   0.810   1.947   2.726 -0.0503  0.4742  0.3127
16058SOL    HW249616   0.869   1.847   2.823  0.1759 -0.2590 -0.5691
16059SOL     OW49617   1.066   7.298   7.471 -0.3142  0.5494  0.0112
16059SOL    HW149618   1.135   7.360   7.494 -0.1753  0.4775 -0.2152
16059SOL    HW249619   1.106   7.239   7.407 -0.2435 -0.1982  0.7305
16060SOL     OW49620   6.390   5.335   2.261  0.2200  0.0464 -0.0075
16060SOL    HW149621   6.296   5.329   2.243 -0.0353  1.0879  0.8492
16060SOL    HW249622   6.408   5.264   2.322 -0.2078  0.3859  0.5241
16061SOL     OW49623   3.428   0.822   3.844 -0.0759  0.2835  0.5795
16061SOL    HW149624   3.378   0.859   3.916 -1.8214 -0.2233 -0.3102
16061SOL    HW249625   3.362   0.798   3.779  1.3711 -0.0606 -0.8283
16062SOL     OW49626   0.110   1.738  12.086  0.0654  0.1032 -0.1043
16062SOL    HW149627   0.191   1.712  12.130  0.7472  0.7595 -0.9270
16062SOL    HW249628   0.041   1.718  12.148  0.9313  0.2951  0.9451
16063SOL     OW49629   7.823   1.780   4.765 -0.1009  0.2900  0.3750
16063SOL    HW149630   7.899   1.750   4.716 -0.3774  0.8114 -0.3855
16063SOL    HW249631   7.773   1.700   4.783 -0.5859  0.1983 -1.2026
16064SOL     OW49632   0.073   4.931   7.582 -0.3356 -0.4345 -0.4860
16064SOL    HW149633  -0.016   4.965   7.583 -0.2608 -0.2390 -0.3488
16064SOL    HW249634   0.126   5.003   7.617 -0.2722 -0.9615  0.5402
16065SOL     OW49635   0.575   2.315   1.911 -0.4669  0.0284 -0.1279
16065SOL    HW149636   0.653   2.344   1.960 -0.4014 -1.1592  0.5171
16065SOL    HW249637   0.514   2.388   1.919  0.3889  0.7797 -0.2131
16066SOL     OW49638   3.376   0.318   6.270  0.2586  0.0415 -0.2629
16066SOL    HW149639   3.460   0.346   6.306  0.1609 -0.2654  0.2171
16066SOL    HW249640   3.399   0.269   6.191  0.6434 -1.2574  0.6093
16067SOL     OW49641   1.197   5.006   8.644 -0.3083 -0.7556  0.0408
16067SOL    HW149642   1.282   5.049   8.654 -0.1204 -1.1034 -0.0318
16067SOL    HW249643   1.135   5.065   8.687 -0.4578  0.8389 -2.2316
16068SOL     OW49644   0.784   2.924   9.851  0.0609  0.3792  0.2653
16068SOL    HW149645   0.794   3.001   9.906  0.4573 -1.2290  2.5785
16068SOL    HW249646   0.855   2.865   9.879 -0.4390 -0.9814 -1.1631
16069SOL     OW49647   4.057   7.813   4.867 -0.0193  0.5172 -0.4089
16069SOL    HW149648   4.120   7.876   4.902 -0.6297  1.7760 -1.4791
16069SOL    HW249649   3.978   7.827   4.919  0.8451 -1.8575  1.7079
16070SOL     OW49650   0.757   5.727  11.424  0.4076  0.3679  0.0631
16070SOL    HW149651   0.671   5.767  11.435  0.3249  0.4188 -0.7003
16070SOL    HW249652   0.758   5.654  11.486  0.3589  1.2159  1.0805
16071SOL     OW49653   7.717   7.261   0.687 -0.1141  0.1524  0.7127
16071SOL    HW149654   7.781   7.232   0.623 -0.9079  0.0562 -0.0641
16071SOL    HW249655   7.727   7.357   0.689 -0.2982  0.1872  0.1974
16072SOL     OW49656   6.459   1.576   2.165  0.0003 -0.1991  0.1206
16072SOL    HW149657   6.520   1.643   2.135 -0.6960  0.0736 -0.7127
16072SOL    HW249658   6.465   1.507   2.099 -0.0797 -0.4819  0.4066
16073SOL     OW49659   0.574   1.076   9.315  0.1305 -0.6197 -0.1472
16073SOL    HW149660   0.518   1.114   9.247 -0.1959 -1.5184 -0.3843
16073SOL    HW249661   0.570   1.139   9.387 -1.4855 -0.8402 -0.0161
16074SOL     OW49662   2.485   0.118   9.471 -0.5274  0.3069 -0.1636
16074SOL    HW149663   2.542   0.065   9.416 -1.4178  0.0451 -0.8646
16074SOL    HW249664   2.522   0.206   9.465  0.1575  0.0241 -0.1131
16075SOL     OW49665   3.279   0.259   6.636  0.0475  0.2664 -0.1544
16075SOL    HW149666   3.252   0.209   6.559  0.5941  1.0538 -0.8844
16075SOL    HW249667   3.374   0.267   6.627  0.2026 -0.2080  0.9699
16076SOL     OW49668   4.565   3.130   9.363 -0.5295  0.4406 -0.2839
16076SOL    HW149669   4.593   3.056   9.308  0.0271  0.9214 -0.6598
16076SOL    HW249670   4.485   3.099   9.405  1.3767 -1.6165  2.1195
16077SOL     OW49671   3.609   0.168   9.028  0.2798 -0.2373  0.1204
16077SOL    HW149672   3.678   0.218   8.984 -0.4408  1.3331  0.7048
16077SOL    HW249673   3.656   0.118   9.095  0.9764 -0.0551 -0.2194
16078SOL     OW49674   1.752   6.289   3.803  0.0135  0.1626  0.0382
16078SOL    HW149675   1.717   6.224   3.863  0.9102 -1.4248 -1.0692
16078SOL    HW249676   1.770   6.365   3.858 -0.2257 -0.8278  1.5578
16079SOL     OW49677   4.656   5.141   5.145 -0.6222  0.6339  0.3143
16079SOL    HW149678   4.599   5.080   5.192 -0.6080  0.5556  0.2299
16079SOL    HW249679   4.597   5.190   5.087 -0.3831 -0.6941 -1.1170
16080SOL     OW49680   3.547   5.775   5.077  0.3713 -0.2433 -0.3819
16080SOL    HW149681   3.491   5.851   5.093 -0.7979 -1.1054 -0.2317
16080SOL    HW249682   3.530   5.752   4.985 -2.1343 -2.4734  0.5005
16081SOL     OW49683   6.324   0.192   7.150 -0.1184  0.3437 -0.1933
16081SOL    HW149684   6.289   0.159   7.232 -1.6808 -0.8397 -1.2744
16081SOL    HW249685   6.283   0.278   7.139  0.3365  0.6423  0.3950
16082SOL     OW49686   3.484   6.714   1.631  0.1937 -0.6800  0.5394
16082SOL    HW149687   3.440   6.795   1.656 -0.1023 -0.3404 -1.0000
16082SOL    HW249688   3.467   6.705   1.537  2.8729 -0.8573 -0.0105
16083SOL     OW49689   5.819   0.925   8.772  0.1430 -0.0213 -0.2245
16083SOL    HW149690   5.800   0.850   8.828  0.0536 -0.2070 -0.5052
16083SOL    HW249691   5.906   0.908   8.737  1.1008  1.1005  1.5052
16084SOL     OW49692   2.537   2.115   9.329 -0.0010  0.0662 -0.1166
16084SOL    HW149693   2.560   2.181   9.394 -0.4958  0.5822 -0.4581
16084SOL    HW249694   2.589   2.038   9.353 -1.8869 -0.5672  2.3258
16085SOL     OW49695   5.724   6.039   0.494  0.0926  0.4095 -0.2917
16085SOL    HW149696   5.738   5.999   0.408  0.1062  1.2851 -0.7071
16085SOL    HW249697   5.803   6.091   0.510  0.0902  0.2572  0.2523
16086SOL     OW49698   5.413   4.824   0.846 -0.5719 -0.5916 -0.1879
16086SOL    HW149699   5.321   4.802   0.858 -0.9706 -0.4081 -2.4200
16086SOL    HW249700   5.432   4.800   0.755  1.0382  1.2016 -0.4001
16087SOL     OW49701   4.028   7.057  12.308 -0.4747 -0.1945  0.2107
16087SOL    HW149702   4.000   7.133  12.258  1.2200  0.6329  0.4204
16087SOL    HW249703   4.120   7.046  12.284 -0.4185 -1.5558  0.9603
16088SOL     OW49704   5.767   5.409   0.573  0.6359 -0.2044  0.1856
16088SOL    HW149705   5.708   5.334   0.573  1.0999 -0.6129 -1.3726
16088SOL    HW249706   5.802   5.413   0.662  0.8968 -2.0692  0.1954
16089SOL     OW49707   1.237   6.279   8.604 -0.4719  0.5102 -0.3115
16089SOL    HW149708   1.223   6.267   8.698 -2.9011  3.5358 -0.1034
16089SOL    HW249709   1.332   6.284   8.595 -0.0569 -1.8948  1.5783
16090SOL     OW49710   3.455   0.225   8.519 -0.5688  0.2981 -0.0678
16090SOL    HW149711   3.465   0.176   8.601 -1.5516  1.1078  0.5762
16090SOL    HW249712   3.471   0.316   8.545 -1.0611  0.5815 -0.7375
16091SOL     OW49713   1.784   3.699   9.280 -0.9822  0.0531 -0.6081
16091SOL    HW149714   1.860   3.742   9.242  0.1553 -2.5025 -1.5030
16091SOL    HW249715   1.735   3.667   9.204 -1.3906 -0.7805 -0.0138
16092SOL     OW49716   0.569   5.136   5.734 -0.2710 -0.1351  0.4601
16092SOL    HW149717   0.657   5.135   5.771  0.0287  1.2653 -0.1817
16092SOL    HW249718   0.556   5.226   5.704 -1.9817 -0.2814  0.6793
16093SOL     OW49719   4.350   0.917   0.186 -0.1128  0.4864  0.2579
16093SOL    HW149720   4.357   0.998   0.134 -0.0391  0.8008  0.7547
16093SOL    HW249721   4.274   0.931   0.242  0.1655  0.3955  0.6656
16094SOL     OW49722   6.815   2.893   1.400 -0.1618 -0.6318  0.1284
16094SOL    HW149723   6.898   2.934   1.375  0.0181 -1.0099  0.1057
16094SOL    HW249724   6.785   2.944   1.475  0.5814 -1.1111  0.7597
16095SOL     OW49725   5.997   5.178   0.781 -0.4978  0.1573 -0.1011
16095SOL    HW149726   5.951   5.095   0.771  0.5050 -0.1957 -2.8084
16095SOL    HW249727   6.090   5.153   0.784 -0.0427  1.1746 -2.8982
16096SOL     OW49728   4.605   7.610   1.237  0.1409  0.4741 -0.3969
16096SOL    HW149729   4.685   7.638   1.281 -0.1168 -2.2431  2.1483
16096SOL    HW249730   4.635   7.559   1.162  0.7588  0.8438 -0.4074
16097SOL     OW49731   3.745   2.966   4.348 -0.3843  0.4964  0.1054
16097SOL    HW149732   3.719   2.916   4.426  0.2890  1.2074  0.8078
16097SOL    HW249733   3.666   2.974   4.296 -0.8877  0.1730  0.8112
16098SOL     OW49734   6.668   0.346  10.659  0.1758 -0.2570 -0.2298
16098SOL    HW149735   6.731   0.418  10.651 -0.4114  0.5188  1.7154
16098SOL    HW249736   6.605   0.362  10.589  0.4025  0.7783 -0.2184
16099SOL     OW49737   3.299   7.764   4.766  0.3199 -0.7072  0.0524
16099SOL    HW149738   3.250   7.694   4.809  0.3432  0.0976  1.4393
16099SOL    HW249739   3.275   7.843   4.814 -0.2332  0.3784 -1.9034
16100SOL     OW49740   7.455   6.196   6.831 -0.1736 -0.7999  0.0146
16100SOL    HW149741   7.445   6.145   6.750  0.9625 -0.9126 -0.0688
16100SOL    HW249742   7.398   6.152   6.894 -0.0636 -1.5044 -0.3677
16101SOL     OW49743   1.660   1.315   0.587 -0.2124  0.3564 -0.1353
16101SOL    HW149744   1.629   1.298   0.676 -1.7592  1.7228 -0.3566
16101SOL    HW249745   1.617   1.249   0.533  0.1582 -0.0194  0.0209
16102SOL     OW49746   0.214   2.472   8.971 -0.1434  0.7782 -0.5827
16102SOL    HW149747   0.286   2.409   8.978  0.0684  1.1384  0.9584
16102SOL    HW249748   0.247   2.551   9.014 -2.0738  0.3383  1.9132
16103SOL     OW49749   0.646   4.893   1.112  0.0154 -0.2456  0.1901
16103SOL    HW149750   0.555   4.919   1.124  0.5955  2.1928 -0.0623
16103SOL    HW249751   0.666   4.916   1.021  1.0353 -0.1712  0.4155
16104SOL     OW49752   0.996   7.085   6.964 -0.3560  0.7719 -0.0482
16104SOL    HW149753   1.053   7.161   6.953  0.4518  0.3623  1.0888
16104SOL    HW249754   1.018   7.028   6.890  0.8071  0.5733  0.4260
16105SOL     OW49755   0.882   5.636   3.479  0.4097  0.2050  0.2028
16105SOL    HW149756   0.972   5.630   3.509  0.0020  0.1676  1.4999
16105SOL    HW249757   0.833   5.583   3.541 -0.5037  0.1635 -0.5265
16106SOL     OW49758   4.714   6.620  10.236 -0.1161  0.2681  0.1882
16106SOL    HW149759   4.649   6.598  10.169  0.8502 -1.0334 -0.3577
16106SOL    HW249760   4.794   6.576  10.207  0.4016 -0.0971  2.0465
16107SOL     OW49761   2.241   0.019   7.452 -0.3974  0.7128  0.3683
16107SOL    HW149762   2.225   0.101   7.405 -0.2648 -0.6233 -2.1564
16107SOL    HW249763   2.244  -0.048   7.384  0.9082 -1.2274  2.2038
16108SOL     OW49764   7.734   0.732   3.045  0.2038  0.1512 -0.5101
16108SOL    HW149765   7.793   0.787   2.994  0.1135  0.2658 -0.4925
16108SOL    HW249766   7.745   0.762   3.135 -0.3212  0.5778 -0.5855
16109SOL     OW49767   1.045   1.912   9.118  0.7166 -0.4218  0.4483
16109SOL    HW149768   0.999   1.963   9.184 -2.1616 -0.0810 -1.6223
16109SOL    HW249769   1.122   1.965   9.095 -1.7387  2.8314 -1.0980
16110SOL     OW49770   2.121   4.902   3.123  0.2634  0.0894  0.0473
16110SOL    HW149771   2.134   4.953   3.043 -2.1215  0.2044 -0.3414
16110SOL    HW249772   2.174   4.824   3.111 -0.2368 -0.0049 -1.7869
16111SOL     OW49773   5.500   2.725   3.453 -0.3578 -0.6815 -0.5013
16111SOL    HW149774   5.556   2.689   3.384  0.5634 -1.4712  0.6240
16111SOL    HW249775   5.421   2.670   3.450  0.4590 -1.9637  0.2714
16112SOL     OW49776   1.020   1.329   4.229  0.5982 -0.1719 -0.1314
16112SOL    HW149777   1.090   1.345   4.166  3.5808 -0.0127  2.9149
16112SOL    HW249778   1.013   1.234   4.234  0.1844 -0.1844 -0.8139
16113SOL     OW49779   3.238   4.575   2.747 -0.1391  0.2426  0.1146
16113SOL    HW149780   3.324   4.540   2.723 -0.8958 -0.4807 -1.7101
16113SOL    HW249781   3.185   4.498   2.765 -0.6596  0.6416  0.2939
16114SOL     OW49782   1.249   5.115   0.928 -0.3005 -0.7151  0.0437
16114SOL    HW149783   1.225   5.044   0.987  1.5416 -0.5596  1.0651
16114SOL    HW249784   1.301   5.174   0.982 -1.6093  1.3507 -0.8203
16115SOL     OW49785   4.003   1.964   8.537 -0.6004  0.8850 -0.0661
16115SOL    HW149786   3.956   1.886   8.565 -1.2809  0.9807 -0.8886
16115SOL    HW249787   4.061   1.985   8.611  0.1714 -0.8259 -0.1379
16116SOL     OW49788   2.004   6.513   8.637  0.5477 -0.1234 -0.2334
16116SOL    HW149789   1.941   6.493   8.568 -1.7517  0.0625  1.6847
16116SOL    HW249790   2.031   6.427   8.670  2.1488 -0.2345 -1.6892
16117SOL     OW49791   2.249   1.076   3.264  0.4856 -0.3594 -0.2661
16117SOL    HW149792   2.288   1.065   3.351 -0.1285 -1.2385 -0.0897
16117SOL    HW249793   2.161   1.111   3.282  0.1193 -1.1570 -0.4970
16118SOL     OW49794   7.569   2.932   1.300  0.6588 -0.1137 -0.2416
16118SOL    HW149795   7.581   3.025   1.318  0.1916  0.3655 -2.1499
16118SOL    HW249796   7.474   2.921   1.291  0.7866 -0.4470 -1.4018
16119SOL     OW49797   2.318   5.340   2.368  0.0858 -0.2548  0.2467
16119SOL    HW149798   2.330   5.392   2.448 -1.5705  1.3585 -0.4710
16119SOL    HW249799   2.397   5.286   2.363  0.8380  0.5238  2.2729
16120SOL     OW49800   0.411   0.045   2.622  0.2472  0.0299  0.1311
16120SOL    HW149801   0.430   0.134   2.593  2.0300 -0.1641  0.5583
16120SOL    HW249802   0.407   0.051   2.718  0.4662 -0.3471  0.1681
16121SOL     OW49803   0.397   1.113   5.631  0.0397 -0.7383 -0.0136
16121SOL    HW149804   0.491   1.112   5.614 -0.1042 -1.4298 -0.8831
16121SOL    HW249805   0.378   1.028   5.670 -0.3420 -0.9471 -0.6287
16122SOL     OW49806   1.852   4.511  10.364  0.2416 -0.0574  0.0732
16122SOL    HW149807   1.935   4.503  10.319  0.6472 -1.3088  0.9802
16122SOL    HW249808   1.876   4.524  10.456 -0.5299 -1.4854  0.5085
16123SOL     OW49809   1.134   5.956   3.444 -0.5297 -0.0793 -0.0328
16123SOL    HW149810   1.084   5.875   3.445 -0.7170  0.0351  1.2454
16123SOL    HW249811   1.111   6.000   3.526 -0.3664  1.2258 -0.6558
16124SOL     OW49812   2.304   0.502   0.341 -0.1538 -0.2968  0.4592
16124SOL    HW149813   2.398   0.512   0.354  0.5195 -1.2173 -2.7428
16124SOL    HW249814   2.266   0.579   0.383  2.3438  1.7717 -0.7494
16125SOL     OW49815   3.179   1.678   7.545 -0.9867 -0.1486 -0.5573
16125SOL    HW149816   3.223   1.742   7.601 -0.1269  0.0444 -1.4308
16125SOL    HW249817   3.109   1.642   7.600  0.1883 -0.3829  0.8487
16126SOL     OW49818   2.545   5.148   8.137  0.6513 -0.0858 -0.1544
16126SOL    HW149819   2.472   5.188   8.184  1.0149  1.1567 -0.6243
16126SOL    HW249820   2.514   5.141   8.046  1.4485  1.3572 -0.5598
16127SOL     OW49821   5.156   0.631   9.453 -0.4138  0.6182 -0.0765
16127SOL    HW149822   5.193   0.543   9.464 -0.1047  0.9767  2.2348
16127SOL    HW249823   5.231   0.686   9.429 -0.1953  0.6265  0.6147
16128SOL     OW49824   2.047   7.794  10.886 -0.9407 -0.2146 -0.0625
16128SOL    HW149825   2.096   7.712  10.890  0.0534  0.3938  0.6550
16128SOL    HW249826   2.091   7.852  10.949 -0.5717  1.4268 -1.7223
16129SOL     OW49827   6.153   5.184  10.521 -0.3670 -0.6103 -0.1656
16129SOL    HW149828   6.172   5.102  10.475  1.0699  0.0476 -0.8187
16129SOL    HW249829   6.189   5.252  10.464  1.0403  0.2752  1.6542
16130SOL     OW49830   6.425   3.878   7.636 -0.2836 -0.0265  0.5638
16130SOL    HW149831   6.378   3.811   7.587  2.0123 -1.5640  0.3382
16130SOL    HW249832   6.433   3.842   7.724 -0.4386  0.7009  0.8841
16131SOL     OW49833   0.759   4.241   2.862  0.3536  0.2378 -0.2704
16131SOL    HW149834   0.749   4.276   2.951  2.1737 -0.2286  0.1766
16131SOL    HW249835   0.682   4.186   2.849  0.1847  0.0875  1.1702
16132SOL     OW49836   5.621   3.306  10.877 -0.2371  0.5503 -0.6451
16132SOL    HW149837   5.624   3.397  10.848  0.2513  0.7383 -0.0327
16132SOL    HW249838   5.635   3.255  10.798 -0.6215  1.0052 -1.0111
16133SOL     OW49839   1.193   7.075   4.114 -0.3830 -0.1873  0.0538
16133SOL    HW149840   1.158   7.164   4.107 -1.4454 -0.6627 -1.2316
16133SOL    HW249841   1.225   7.054   4.026  1.4601 -0.4764  0.7498
16134SOL     OW49842   0.656   2.387   8.592  0.3978 -0.0678 -0.1052
16134SOL    HW149843   0.649   2.480   8.568  0.3606 -0.3343 -1.1731
16134SOL    HW249844   0.636   2.385   8.686 -0.3078  0.9127 -0.2222
16135SOL     OW49845   0.452   5.863   5.838  0.0233  0.2338  0.2793
16135SOL    HW149846   0.475   5.803   5.908 -1.9815 -0.4649  0.3968
16135SOL    HW249847   0.502   5.943   5.858 -0.8014  0.2329  2.7994
16136SOL     OW49848   6.014   0.475   0.456  0.4834 -0.0704 -0.3177
16136SOL    HW149849   6.055   0.560   0.439  1.4705 -0.8130 -1.9469
16136SOL    HW249850   5.954   0.491   0.528  1.3851  1.7798  0.0800
16137SOL     OW49851   1.758   4.769  11.176 -0.4993  0.9633  0.4173
16137SOL    HW149852   1.742   4.675  11.186 -2.6695  1.1778 -0.3668
16137SOL    HW249853   1.852   4.777  11.162 -0.3903 -1.1896 -0.4200
16138SOL     OW49854   6.060   3.851   1.098 -0.2241  0.5918  0.0001
16138SOL    HW149855   6.091   3.761   1.112 -0.8443  0.6246  1.8829
16138SOL    HW249856   6.121   3.906   1.146  0.1487  1.2073 -1.1387
16139SOL     OW49857   4.717   1.139   3.211  0.0069 -0.2811 -0.3615
16139SOL    HW149858   4.638   1.089   3.192  0.7302 -3.5774  3.8510
16139SOL    HW249859   4.686   1.216   3.258 -0.7921 -0.9416  0.2263
16140SOL     OW49860   2.116   2.626   3.300  0.0495 -0.5683  0.2032
16140SOL    HW149861   2.133   2.585   3.215  0.8327 -0.1721  0.1624
16140SOL    HW249862   2.037   2.582   3.332 -2.4665  1.6928 -2.3097
16141SOL     OW49863   7.366   1.108   1.070  0.2836 -0.2434  0.6798
16141SOL    HW149864   7.330   1.065   1.148  1.3116 -0.6739  0.9336
16141SOL    HW249865   7.387   1.197   1.100  0.2605 -0.2669  0.7676
16142SOL     OW49866   3.750   3.658   0.118  0.3037 -0.1682  0.3609
16142SOL    HW149867   3.721   3.611   0.040  2.2537 -1.8244  0.5695
16142SOL    HW249868   3.743   3.750   0.094  1.1714 -0.6367 -1.9331
16143SOL     OW49869   0.562   4.666   2.053  0.7043  0.8279 -0.3125
16143SOL    HW149870   0.647   4.700   2.081  1.9433 -0.9657 -1.6351
16143SOL    HW249871   0.554   4.581   2.096  0.0648  0.5299 -0.9861
16144SOL     OW49872   2.322   2.409   0.385  0.0087  0.9190 -0.9357
16144SOL    HW149873   2.287   2.333   0.339 -0.2542  0.8793 -0.6717
16144SOL    HW249874   2.293   2.484   0.333  1.4022  0.7888 -1.9577
16145SOL     OW49875   3.966   6.063   4.562  0.5738 -0.3792 -0.1478
16145SOL    HW149876   4.007   5.992   4.511  0.3448 -1.1603  0.7250
16145SOL    HW249877   3.968   6.031   4.652 -3.0198 -1.0075 -0.1508
16146SOL     OW49878   6.857   5.158   7.547  0.4530 -0.1182  0.5577
16146SOL    HW149879   6.936   5.160   7.601  0.8845 -1.9628  0.0959
16146SOL    HW249880   6.876   5.091   7.480 -0.7978  0.7254 -0.6939
16147SOL     OW49881   1.141   4.587   7.709  0.4040  0.5506 -0.2455
16147SOL    HW149882   1.162   4.674   7.677 -1.4467  1.2136  0.2208
16147SOL    HW249883   1.132   4.597   7.804 -0.5539  0.0345 -0.2644
16148SOL     OW49884   7.032   1.409   3.802 -0.2427  0.0434 -0.3069
16148SOL    HW149885   7.112   1.363   3.829  0.3282  1.1868 -0.0146
16148SOL    HW249886   6.972   1.338   3.778  0.6855 -0.8574 -0.0833
16149SOL     OW49887   5.820   2.561   7.081  1.1832 -0.0158  0.2371
16149SOL    HW149888   5.846   2.502   7.152  1.0869 -1.7472 -1.0828
16149SOL    HW249889   5.729   2.537   7.064  1.4947 -0.2979 -1.0900
16150SOL     OW49890   0.575   3.930   4.781  0.0262 -0.4591  0.2995
16150SOL    HW149891   0.617   3.878   4.849 -1.0002 -0.7918  0.6933
16150SOL    HW249892   0.506   3.872   4.746 -1.4367  0.7620  1.0534
16151SOL     OW49893   1.400   7.095   2.292 -1.3163  0.8372  0.3235
16151SOL    HW149894   1.412   7.147   2.213 -2.3603  0.6476  0.0279
16151SOL    HW249895   1.489   7.083   2.326 -0.7815  0.4230 -1.1364
16152SOL     OW49896   7.616   5.926   2.237 -0.6687  0.5293 -0.4806
16152SOL    HW149897   7.579   5.991   2.177 -1.9609  0.3956  0.1455
16152SOL    HW249898   7.670   5.977   2.298 -1.2515  0.9560 -0.3157
16153SOL     OW49899   4.507   5.733   9.464  0.6575  0.0200 -0.2798
16153SOL    HW149900   4.568   5.699   9.529 -0.0104 -0.7796 -0.0466
16153SOL    HW249901   4.437   5.667   9.460 -0.1387  0.8531 -0.6053
16154SOL     OW49902   2.865   7.905   1.164  0.4488  0.0453 -0.2500
16154SOL    HW149903   2.849   7.981   1.220  0.4698 -0.4265  0.4165
16154SOL    HW249904   2.779   7.864   1.155  0.3532  0.3959 -0.9894
16155SOL     OW49905   1.747   2.022   4.293 -0.9425 -0.4091  0.1516
16155SOL    HW149906   1.665   2.014   4.244 -2.2400 -0.0029  2.1426
16155SOL    HW249907   1.719   2.036   4.383  1.3542 -1.1858  1.0336
16156SOL     OW49908   1.457   2.537   0.915  0.0729  0.3897 -0.4731
16156SOL    HW149909   1.481   2.445   0.925 -0.6512  0.3193  0.8739
16156SOL    HW249910   1.531   2.577   0.869  0.4884 -0.8107 -0.8754
16157SOL     OW49911   6.797   0.017   5.098 -0.3250 -0.2325  0.2244
16157SOL    HW149912   6.715  -0.031   5.086  0.5013 -1.2624 -1.7656
16157SOL    HW249913   6.865  -0.043   5.067  1.0754  1.0704  0.6268
16158SOL     OW49914   7.577   6.290   3.655  0.2747 -0.3203  0.5467
16158SOL    HW149915   7.512   6.335   3.602  0.6876 -0.8119 -0.3954
16158SOL    HW249916   7.539   6.204   3.673  0.9546 -0.8937 -0.6470
16159SOL     OW49917   5.366   3.778   4.567 -0.0292  0.1909 -0.1514
16159SOL    HW149918   5.309   3.754   4.641  1.1402 -0.6283  0.5108
16159SOL    HW249919   5.335   3.865   4.541 -0.0026  0.8307  1.7820
16160SOL     OW49920   7.066   5.915   1.545  0.0316  0.1568  0.3237
16160SOL    HW149921   7.036   5.989   1.598 -0.5116  0.2837 -0.1465
16160SOL    HW249922   7.152   5.942   1.513 -0.0277  0.4516  0.4122
16161SOL     OW49923   1.973   7.046   8.044 -0.2759 -0.3224  0.1804
16161SOL    HW149924   1.958   6.991   8.121 -0.6990  0.1220  0.4215
16161SOL    HW249925   2.066   7.067   8.048 -0.4131  0.2047  0.9259
16162SOL     OW49926   0.931   1.081   5.967 -0.8538 -0.2238  0.1325
16162SOL    HW149927   1.000   1.017   5.947 -1.7406 -1.1361 -0.0738
16162SOL    HW249928   0.900   1.057   6.054  1.1359  2.0789  1.6062
16163SOL     OW49929   7.747   3.395   6.197  0.1491  0.2658  0.0082
16163SOL    HW149930   7.760   3.397   6.103 -0.1693 -0.9591 -0.0826
16163SOL    HW249931   7.702   3.311   6.213 -1.6831  1.3581  1.0041
16164SOL     OW49932   2.442   5.877   9.769 -0.0522 -0.3260 -0.0102
16164SOL    HW149933   2.507   5.914   9.709  0.2188 -0.1597  0.3785
16164SOL    HW249934   2.482   5.885   9.855  0.1219 -1.7489  0.0741
16165SOL     OW49935   0.716   4.360   6.642  0.0970  0.2981  0.0595
16165SOL    HW149936   0.761   4.357   6.726  0.2678 -0.0298 -0.0424
16165SOL    HW249937   0.769   4.418   6.588  1.0382 -0.9648 -0.4236
16166SOL     OW49938   4.192   1.861   0.821 -0.4358 -0.2667  0.0534
16166SOL    HW149939   4.171   1.768   0.836  2.2065 -0.7617  1.4338
16166SOL    HW249940   4.239   1.861   0.738 -0.5242 -0.1476  0.0043
16167SOL     OW49941   2.897   2.818  11.919  0.2961  0.3296  0.1210
16167SOL    HW149942   2.938   2.879  11.981 -0.4738  0.5236  0.4565
16167SOL    HW249943   2.827   2.777  11.969 -1.5267  1.8141 -1.0836
16168SOL     OW49944   4.020   1.341   3.354  0.2390 -0.6164 -0.2306
16168SOL    HW149945   3.983   1.297   3.278 -1.6122 -0.2123  0.3717
16168SOL    HW249946   4.054   1.271   3.410  0.9052 -0.9624 -1.0549
16169SOL     OW49947   7.446   2.834   2.311  0.2031  0.0728 -0.1517
16169SOL    HW149948   7.431   2.865   2.400 -1.3044 -1.7770  0.2845
16169SOL    HW249949   7.425   2.910   2.256 -0.3076  0.7830  0.9896
16170SOL     OW49950   0.227   7.688   3.844  0.0442  0.2967 -0.0660
16170SOL    HW149951   0.163   7.691   3.916  1.6285  0.3664  1.4121
16170SOL    HW249952   0.258   7.597   3.844  1.5400  0.7797  0.7498
16171SOL     OW49953   0.589   0.565   6.610  0.4304 -0.3616  0.0710
16171SOL    HW149954   0.579   0.643   6.556  1.5558 -0.8488 -0.8679
16171SOL    HW249955   0.530   0.500   6.570 -0.4253 -0.0527  0.7885
16172SOL     OW49956   4.363   0.427  11.396  0.4889 -0.8986  0.6066
16172SOL    HW149957   4.318   0.463  11.320  0.3107 -1.2680  0.5319
16172SOL    HW249958   4.428   0.493  11.420  1.0806 -1.1084 -0.3423
16173SOL     OW49959   2.629   0.863   5.090 -0.0330 -0.5359 -0.6960
16173SOL    HW149960   2.547   0.910   5.078  1.3669  2.8073  1.1725
16173SOL    HW249961   2.693   0.914   5.040  1.6249 -0.1665  1.5891
16174SOL     OW49962   5.312   3.898   6.852 -0.0347 -0.2712 -0.3438
16174SOL    HW149963   5.371   3.950   6.907  2.0074 -0.0377 -2.5935
16174SOL    HW249964   5.278   3.831   6.911  0.9716  0.7521  1.5104
16175SOL     OW49965   4.795   6.797   9.949 -0.2180  0.0917 -0.3135
16175SOL    HW149966   4.800   6.791   9.854 -0.7502  1.4130 -0.4530
16175SOL    HW249967   4.871   6.749   9.980 -0.9505 -1.8277 -1.3201
16176SOL     OW49968   5.030   0.934   7.510  0.4535 -0.4190  0.3561
16176SOL    HW149969   5.048   1.027   7.518  0.1365 -0.4008  0.9617
16176SOL    HW249970   5.106   0.891   7.550 -0.3087 -0.3651  1.9326
16177SOL     OW49971   7.477   7.643   7.762  0.2442  0.2040 -0.0584
16177SOL    HW149972   7.531   7.703   7.710 -1.7437  1.0734 -1.2352
16177SOL    HW249973   7.532   7.567   7.775  2.0806  1.4146 -0.3942
16178SOL     OW49974   1.626   5.725   8.811 -0.1384 -0.6796  0.3563
16178SOL    HW149975   1.633   5.749   8.719 -1.0006 -0.0093  0.4512
16178SOL    HW249976   1.572   5.794   8.850  0.6312 -0.6868  1.4693
16179SOL     OW49977   3.981   0.677   1.296 -0.3061 -0.2303 -0.0117
16179SOL    HW149978   4.074   0.679   1.320 -1.1289  1.4264  3.8097
16179SOL    HW249979   3.936   0.659   1.378 -3.4282 -0.8582 -1.7165
16180SOL     OW49980   0.470   4.115  11.819 -0.0083  0.1692 -0.2732
16180SOL    HW149981   0.553   4.123  11.771 -0.3266  1.5191 -0.6444
16180SOL    HW249982   0.436   4.204  11.822 -1.1516 -0.2754  0.4207
16181SOL     OW49983   2.738   3.277   4.312  0.4301  0.2804  0.0267
16181SOL    HW149984   2.821   3.318   4.336 -0.4305  1.6600  0.7550
16181SOL    HW249985   2.730   3.203   4.372 -0.0315  1.6317  1.7094
16182SOL     OW49986   4.806   1.978   6.623 -0.1693 -0.3700 -0.0243
16182SOL    HW149987   4.859   1.949   6.698 -0.0723 -0.7164 -0.2217
16182SOL    HW249988   4.845   1.933   6.548 -1.7659 -1.9527  0.0452
16183SOL     OW49989   0.400   7.670   3.015  0.0683 -0.1197  0.0662
16183SOL    HW149990   0.405   7.576   2.998 -0.7581 -0.7476  2.7489
16183SOL    HW249991   0.306   7.690   3.016  0.2287  0.7303 -0.3733
16184SOL     OW49992   2.771   6.471  11.933 -0.2492  0.4746 -0.1050
16184SOL    HW149993   2.710   6.475  11.859  0.3126  0.2295 -0.5924
16184SOL    HW249994   2.750   6.389  11.977 -0.5840  0.6197  0.0061
16185SOL     OW49995   1.407   2.628  11.410  0.2735 -0.4364 -0.0771
16185SOL    HW149996   1.427   2.719  11.429  0.2989  0.5479 -4.0480
16185SOL    HW249997   1.330   2.608  11.464  0.3201  1.8435  0.9530
16186SOL     OW49998   0.607   2.798   7.955 -0.0369  0.7111  0.2817
16186SOL    HW149999   0.661   2.771   7.881  0.2147 -1.3241  1.1467
16186SOL    HW250000   0.518   2.796   7.921  0.1935  1.4743 -0.4136
16187SOL     OW50001   1.147   0.176   2.828  0.5292  0.5880  0.0657
16187SOL    HW150002   1.205   0.125   2.771 -0.2877 -1.0861  0.6749
16187SOL    HW250003   1.065   0.183   2.779  0.7193  1.6155 -0.1364
16188SOL     OW50004   4.953   3.893   9.637 -0.8543 -0.2601 -0.2905
16188SOL    HW150005   4.957   3.933   9.550  0.8955 -0.5718 -0.3900
16188SOL    HW250006   4.873   3.929   9.676 -0.9704  0.9155 -1.5237
16189SOL     OW50007   6.749   4.273   1.904 -0.0881 -0.8037 -0.0320
16189SOL    HW150008   6.760   4.183   1.934 -1.2877 -0.9616 -0.0321
16189SOL    HW250009   6.660   4.296   1.930 -0.0069  0.1675 -0.5923
16190SOL     OW50010   1.151   6.032  11.636 -0.5846  0.4723 -0.5026
16190SOL    HW150011   1.136   6.121  11.604 -3.1083  0.3457  0.1166
16190SOL    HW250012   1.101   5.977  11.576  0.2208 -0.4534 -0.3400
16191SOL     OW50013   1.428   1.920   9.569  0.3059  0.4766  0.0058
16191SOL    HW150014   1.518   1.895   9.588  0.6224 -0.2598 -2.2378
16191SOL    HW250015   1.424   2.013   9.590  1.3052  0.3135  1.0186
16192SOL     OW50016   4.873   6.321  10.283 -0.1868 -0.2776  0.8619
16192SOL    HW150017   4.922   6.357  10.210  1.0783 -1.9098  0.8403
16192SOL    HW250018   4.786   6.302  10.247  0.3507 -0.8681 -0.1715
16193SOL     OW50019   3.611   0.051   3.376 -0.0992 -0.5178  0.1034
16193SOL    HW150020   3.648   0.068   3.463 -0.7269  2.1095 -0.0526
16193SOL    HW250021   3.516   0.048   3.390 -0.4475  2.8216 -0.7642
16194SOL     OW50022   3.947   0.325   7.358 -0.2266 -0.6029  0.6571
16194SOL    HW150023   3.952   0.319   7.454  0.8470 -1.6954  0.5609
16194SOL    HW250024   3.865   0.281   7.336 -1.7854  1.8407  1.1909
16195SOL     OW50025   1.808   2.947   8.749 -0.6078 -0.0821 -0.0790
16195SOL    HW150026   1.812   2.944   8.845  1.0072  0.3304 -0.0916
16195SOL    HW250027   1.728   2.900   8.726 -1.5313  0.6445  1.5038
16196SOL     OW50028   4.704   2.943   6.031  0.1401 -0.2352 -0.5663
16196SOL    HW150029   4.630   2.901   5.988 -0.6602  0.4892  0.0698
16196SOL    HW250030   4.774   2.878   6.025 -0.3251 -0.6585 -1.7852
16197SOL     OW50031   2.360   3.064  11.839 -0.1510  0.2639 -0.1292
16197SOL    HW150032   2.376   2.978  11.878 -0.9871 -0.2394 -0.8588
16197SOL    HW250033   2.442   3.112  11.853 -0.5576  0.3214  2.6682
16198SOL     OW50034   5.974   5.029   7.437  0.2923  0.2719  0.5757
16198SOL    HW150035   6.036   4.977   7.387 -0.7044 -0.6846  0.3041
16198SOL    HW250036   6.028   5.090   7.487  1.4507 -0.6174  0.4309
16199SOL     OW50037   4.846   6.336  11.916 -0.6445  0.4458 -0.0975
16199SOL    HW150038   4.767   6.312  11.965 -0.7108  0.0394 -0.3936
16199SOL    HW250039   4.903   6.260  11.924  0.1612  1.1470  1.0023
16200SOL     OW50040   0.510   5.524   1.807  0.2248  0.4629  0.3082
16200SOL    HW150041   0.596   5.561   1.789  0.7879 -1.2023 -0.6513
16200SOL    HW250042   0.450   5.575   1.753  1.1621 -0.8328 -2.0605
16201SOL     OW50043   1.383   3.090   8.783  0.6500  0.3190 -0.4122
16201SOL    HW150044   1.339   3.083   8.868  0.5474  0.5942 -0.4435
16201SOL    HW250045   1.439   3.012   8.779  0.3646  0.1024 -0.2594
16202SOL     OW50046   0.729   1.932   8.561  0.2104 -0.1280  0.1204
16202SOL    HW150047   0.752   2.021   8.587 -0.6376  0.4203 -0.8976
16202SOL    HW250048   0.785   1.914   8.486  0.7221 -0.6486  0.6204
16203SOL     OW50049   0.174   6.302   3.075 -0.3536  0.2340 -0.0571
16203SOL    HW150050   0.178   6.268   3.165 -0.0447  0.6139  0.0761
16203SOL    HW250051   0.099   6.257   3.036  0.8302 -1.6111 -0.3163
16204SOL     OW50052   0.143   3.458   6.032 -0.1466 -0.4740  0.0532
16204SOL    HW150053   0.094   3.485   5.954 -1.1114 -2.3249 -0.0108
16204SOL    HW250054   0.184   3.375   6.008  2.7190  0.7304  0.2726
16205SOL     OW50055   0.204   6.117   2.503  0.6949  0.0657 -0.1234
16205SOL    HW150056   0.273   6.157   2.556  0.9223 -1.3575  0.6995
16205SOL    HW250057   0.123   6.152   2.539  0.8722 -0.5296  0.8910
16206SOL     OW50058   6.541   0.194   6.780 -0.0337 -0.3441  0.4266
16206SOL    HW150059   6.631   0.228   6.779  0.5173 -1.7113 -0.6301
16206SOL    HW250060   6.525   0.171   6.871  0.9359 -0.6652  0.5290
16207SOL     OW50061   0.911   0.496   0.889  0.5407  0.5324 -0.0680
16207SOL    HW150062   0.881   0.551   0.817 -1.5312  0.4558  0.6404
16207SOL    HW250063   0.974   0.436   0.850  0.1598  1.0960 -1.6145
16208SOL     OW50064   1.555   6.312  12.406 -0.0016 -0.3187  0.1033
16208SOL    HW150065   1.534   6.325  12.498 -0.7789  2.7081 -0.3786
16208SOL    HW250066   1.649   6.298  12.404  0.5391  2.5612  1.2366
16209SOL     OW50067   2.232   1.402  12.170  0.2713 -0.1914  0.6147
16209SOL    HW150068   2.265   1.313  12.185 -2.2991 -0.8902  2.8908
16209SOL    HW250069   2.309   1.458  12.181  1.8101 -2.0228 -0.0903
16210SOL     OW50070   3.618   7.471   4.950  0.5249 -0.1977  0.3460
16210SOL    HW150071   3.598   7.557   4.911  0.1866 -0.0171  0.8963
16210SOL    HW250072   3.644   7.492   5.040  0.0436 -0.6953  0.6076
16211SOL     OW50073   7.646   0.241   2.630 -0.2635 -0.1627  0.3110
16211SOL    HW150074   7.651   0.195   2.546  1.2591  0.1942  0.1716
16211SOL    HW250075   7.738   0.257   2.654 -0.7102  1.1981  1.2436
16212SOL     OW50076   4.704   0.447   1.550  0.3144 -0.1207  0.0026
16212SOL    HW150077   4.654   0.391   1.610  0.4284 -0.3282 -0.0962
16212SOL    HW250078   4.794   0.442   1.583 -0.0183  1.8038  1.3870
16213SOL     OW50079   3.577   7.143  10.172 -0.1258 -0.4546  0.4390
16213SOL    HW150080   3.603   7.062  10.129 -0.7682 -2.2764  3.1653
16213SOL    HW250081   3.634   7.149  10.249 -0.3530  1.5021  0.5071
16214SOL     OW50082   3.454   2.761   6.565 -0.0102 -0.5034  0.0630
16214SOL    HW150083   3.508   2.721   6.633  0.6062  0.8619  0.4283
16214SOL    HW250084   3.453   2.697   6.494  3.1433 -0.1296 -0.4733
16215SOL     OW50085   1.541   0.112   7.615  0.0983 -0.0531  0.4157
16215SOL    HW150086   1.462   0.148   7.575  1.0903  1.9129  0.1092
16215SOL    HW250087   1.578   0.054   7.548  0.1291  0.8371 -0.3575
16216SOL     OW50088   1.945   7.479   5.834  0.0241 -0.4224  0.0930
16216SOL    HW150089   1.861   7.466   5.878 -0.8114 -4.5072 -2.2548
16216SOL    HW250090   1.926   7.543   5.766 -1.0757 -0.9520 -0.1193
16217SOL     OW50091   2.785   1.644   5.117 -0.3052 -0.3928 -0.1501
16217SOL    HW150092   2.785   1.611   5.027  0.9181  0.8738 -0.6389
16217SOL    HW250093   2.874   1.628   5.148 -0.2981  0.5200  0.3184
16218SOL     OW50094   4.881   1.421  10.740 -0.5415  0.3959  0.6067
16218SOL    HW150095   4.843   1.503  10.708 -0.9701 -0.1299 -0.2755
16218SOL    HW250096   4.941   1.448  10.809 -0.4161  1.4817  0.0921
16219SOL     OW50097   0.855   4.940   8.690 -0.2668 -0.7512  0.0585
16219SOL    HW150098   0.943   4.908   8.670  0.4296  1.7646 -1.3444
16219SOL    HW250099   0.837   4.908   8.778  1.2577 -2.8578 -0.3184
16220SOL     OW50100   2.919   2.656   5.680  0.2783  0.0179  0.4905
16220SOL    HW150101   2.869   2.732   5.653  0.4554 -0.2192 -0.5255
16220SOL    HW250102   2.896   2.644   5.773  0.1094  1.1818  0.6107
16221SOL     OW50103   2.090   4.998   5.102 -0.0959 -1.1018  0.0655
16221SOL    HW150104   2.101   4.943   5.025 -0.8863 -1.5178  0.2407
16221SOL    HW250105   2.019   4.956   5.152 -1.1896  0.4247 -0.1277
16222SOL     OW50106   2.019   2.774   7.952 -0.0533 -0.3390  0.1256
16222SOL    HW150107   2.033   2.744   8.042  1.4512 -0.0502  0.0137
16222SOL    HW250108   2.059   2.706   7.898 -0.5031 -0.2586 -0.3182
16223SOL     OW50109   7.639   0.579   9.566 -0.0468  0.1120 -0.5313
16223SOL    HW150110   7.731   0.560   9.547 -0.0938  0.5890 -1.2978
16223SOL    HW250111   7.603   0.607   9.481 -0.2448  2.4143  0.2390
16224SOL     OW50112   3.568   5.457   9.603 -0.3195 -0.1504  0.5148
16224SOL    HW150113   3.605   5.546   9.606 -1.8124  0.5284 -0.2063
16224SOL    HW250114   3.587   5.426   9.514  0.2790 -0.6019  0.7938
16225SOL     OW50115   3.293   5.076   9.093 -0.8430  0.3577 -0.1262
16225SOL    HW150116   3.331   5.150   9.045  0.4815  0.3994  0.9502
16225SOL    HW250117   3.360   5.008   9.090 -1.3961 -0.2150  0.2807
16226SOL     OW50118   4.232   0.827   1.756  0.4028 -0.1193  0.1282
16226SOL    HW150119   4.255   0.738   1.731 -1.1940 -0.4528 -0.2747
16226SOL    HW250120   4.147   0.843   1.714  0.9771  1.8566 -0.4177
16227SOL     OW50121   2.674   4.169  10.404  0.6361 -0.4293  0.3870
16227SOL    HW150122   2.705   4.182  10.315 -0.1309 -2.0160 -0.1370
16227SOL    HW250123   2.690   4.254  10.447 -2.3816  1.6949 -2.2168
16228SOL     OW50124   7.449   2.791   4.743  0.0255 -0.4940 -0.0154
16228SOL    HW150125   7.394   2.792   4.665  0.5753 -1.6414 -0.4373
16228SOL    HW250126   7.450   2.699   4.770  0.8962 -0.3171  0.5838
16229SOL     OW50127   2.632   6.638   5.154  0.0904  0.3487 -0.4682
16229SOL    HW150128   2.704   6.580   5.131  0.8449  1.1684 -0.2029
16229SOL    HW250129   2.590   6.595   5.229  1.0394  0.4644  0.1418
16230SOL     OW50130   0.066   4.963  11.652  0.3128 -0.1497  0.1262
16230SOL    HW150131   0.140   4.963  11.713  1.9481 -2.3287 -1.6911
16230SOL    HW250132   0.095   4.909  11.579 -1.7687  1.8280 -2.3583
16231SOL     OW50133   5.099   6.730  10.029 -0.0333 -0.2744  0.1631
16231SOL    HW150134   5.183   6.717   9.986  0.2893  2.0365  0.0184
16231SOL    HW250135   5.069   6.815  10.000 -2.6984 -1.2251 -0.1710
16232SOL     OW50136   2.786   5.143   3.859  0.0699 -0.7065 -0.3445
16232SOL    HW150137   2.773   5.063   3.807  1.3960 -0.9271 -0.3873
16232SOL    HW250138   2.809   5.111   3.946 -0.4195 -0.3505 -0.0814
16233SOL     OW50139   2.902   3.246   3.317 -0.0236 -0.1847  0.3783
16233SOL    HW150140   2.933   3.204   3.398 -0.7131  1.4632  1.5581
16233SOL    HW250141   2.981   3.279   3.275  0.2648 -0.2515  0.8628
16234SOL     OW50142   0.177   1.883   7.019 -0.0320  0.0450  0.3811
16234SOL    HW150143   0.238   1.916   6.954 -0.7860  0.3292 -0.2060
16234SOL    HW250144   0.206   1.922   7.102  1.4469 -0.9965  0.3850
16235SOL     OW50145   6.477   0.263  11.811  0.0973  0.8517  0.0413
16235SOL    HW150146   6.404   0.280  11.752 -0.8722 -0.2112  0.8848
16235SOL    HW250147   6.555   0.284  11.760 -0.7912  2.1464 -0.8345
16236SOL     OW50148   5.953   2.417   5.350  0.6696  0.0865  0.0362
16236SOL    HW150149   5.905   2.346   5.307  1.0876 -0.5486  0.5957
16236SOL    HW250150   6.042   2.382   5.362  0.7529  0.5263  0.7436
16237SOL     OW50151   7.463   1.777   5.476  0.3055 -0.0126 -0.4356
16237SOL    HW150152   7.529   1.810   5.537 -0.7314 -2.4190  2.1811
16237SOL    HW250153   7.505   1.701   5.435  0.2548  0.3656 -1.2067
16238SOL     OW50154   5.098   5.403   8.391  0.1107  0.1277 -0.0578
16238SOL    HW150155   5.017   5.363   8.422  0.0673 -1.2201 -1.7783
16238SOL    HW250156   5.110   5.369   8.302  3.1536 -0.6961  0.5181
16239SOL     OW50157   3.742   3.353   5.160  0.2099 -0.8223 -0.6354
16239SOL    HW150158   3.652   3.335   5.133 -0.2268 -0.6149  0.6009
16239SOL    HW250159   3.761   3.285   5.225  0.5558 -0.2356 -0.1142
16240SOL     OW50160   5.104   0.259   4.154  0.2937 -0.6874 -0.5214
16240SOL    HW150161   5.049   0.338   4.154 -0.4785 -1.2114  0.0338
16240SOL    HW250162   5.173   0.279   4.218  0.4757 -0.2202 -0.8553
16241SOL     OW50163   6.996   3.455  10.165  0.3137  0.0146  0.3433
16241SOL    HW150164   6.931   3.391  10.135  0.0053 -0.4286  1.8660
16241SOL    HW250165   6.973   3.536  10.119  0.4222 -0.8301 -1.2507
16242SOL     OW50166   3.122   7.941   1.109 -0.1356  0.4704 -0.1651
16242SOL    HW150167   3.133   8.034   1.091  0.2773  0.5647  0.5782
16242SOL    HW250168   3.027   7.926   1.103 -0.1822  0.8936 -0.4749
16243SOL     OW50169   2.772   3.404   3.647 -0.4409  0.1719  0.1024
16243SOL    HW150170   2.756   3.351   3.569  0.6679 -0.1884  0.0925
16243SOL    HW250171   2.711   3.477   3.640 -1.5659 -0.7735 -0.2102
16244SOL     OW50172   4.275   5.996   0.077  0.0949 -0.0380  0.2120
16244SOL    HW150173   4.321   6.067   0.122 -0.5787 -0.1221  1.0644
16244SOL    HW250174   4.296   5.918   0.129 -1.0444 -0.0654  0.6602
16245SOL     OW50175   6.696   2.039   4.903 -0.4350  0.0268  0.3576
16245SOL    HW150176   6.606   2.063   4.883 -1.2751 -2.8055  0.2532
16245SOL    HW250177   6.724   1.986   4.829  1.7329  1.6520 -0.0795
16246SOL     OW50178   4.419   5.398   5.934  0.0187  0.3930  0.8854
16246SOL    HW150179   4.328   5.421   5.955  0.0820  0.8391  0.6776
16246SOL    HW250180   4.426   5.415   5.840  0.0678 -0.4670  0.7253
16247SOL     OW50181   2.674   7.126   1.699  0.3326  0.4456  0.1909
16247SOL    HW150182   2.581   7.107   1.689  0.4749 -0.2278  0.1337
16247SOL    HW250183   2.717   7.071   1.634  0.7386  1.1020 -0.1070
16248SOL     OW50184   4.066   5.924   0.833  0.3106  0.3020  0.0003
16248SOL    HW150185   4.064   5.894   0.742  0.3078  0.9640 -0.2192
16248SOL    HW250186   4.023   6.009   0.832 -1.4962 -0.5451  0.9633
16249SOL     OW50187   4.626   0.525  10.229 -0.1038 -0.4631 -0.2924
16249SOL    HW150188   4.683   0.602  10.222 -0.4101 -0.2823 -0.8697
16249SOL    HW250189   4.551   0.546  10.173 -0.0158 -1.3347 -0.7534
16250SOL     OW50190   1.433   0.358   6.692  0.1255  0.2149  0.2306
16250SOL    HW150191   1.343   0.378   6.718  0.3223  2.8290 -0.7249
16250SOL    HW250192   1.444   0.404   6.609  2.3953  0.0953  0.4050
16251SOL     OW50193   6.785   5.874   4.221  0.1279  0.0245 -0.1710
16251SOL    HW150194   6.843   5.867   4.296  2.1513 -0.6348 -1.6948
16251SOL    HW250195   6.774   5.968   4.209  1.6393  0.2155 -0.3390
16252SOL     OW50196   7.291   1.584   3.201 -0.5944 -0.3563 -0.1268
16252SOL    HW150197   7.249   1.642   3.138  2.0092  2.4421  0.4538
16252SOL    HW250198   7.241   1.596   3.282 -0.7419  0.3108 -0.3093
16253SOL     OW50199   5.251   7.705   5.563 -0.1064 -0.8090  0.4594
16253SOL    HW150200   5.285   7.627   5.607 -0.4699 -1.1167  0.2022
16253SOL    HW250201   5.314   7.722   5.492 -0.0953 -0.9453  0.4372
16254SOL     OW50202   6.541   3.516   6.767 -0.2137  0.1558 -0.5964
16254SOL    HW150203   6.452   3.551   6.761 -0.3622 -0.3804 -1.9986
16254SOL    HW250204   6.560   3.484   6.679  1.1202 -0.3619 -0.1493
16255SOL     OW50205   1.303   0.129  10.845  0.3501  0.2504 -0.4485
16255SOL    HW150206   1.302   0.212  10.892 -4.1913 -1.0260  2.3097
16255SOL    HW250207   1.323   0.064  10.913  0.3340 -1.2065 -1.7848
16256SOL     OW50208   0.532   3.916   0.883  0.0529 -0.8675  0.5751
16256SOL    HW150209   0.482   3.885   0.807 -2.1808  2.0135  0.6933
16256SOL    HW250210   0.466   3.933   0.950  1.3747  1.1742  1.4670
16257SOL     OW50211   2.989   6.483   9.659 -0.1837 -0.3073  0.2166
16257SOL    HW150212   2.957   6.476   9.749  2.7814 -2.0835  1.2479
16257SOL    HW250213   2.991   6.393   9.627 -1.2553  0.2983 -1.7184
16258SOL     OW50214   1.201   7.011   8.615  0.2497  0.0094 -0.2183
16258SOL    HW150215   1.254   7.046   8.686  0.5459  1.1919 -0.9908
16258SOL    HW250216   1.264   6.990   8.547 -0.1300  0.0121 -0.5743
16259SOL     OW50217   0.488   6.750  10.093 -0.3914  0.0068 -0.2577
16259SOL    HW150218   0.503   6.701  10.173  0.7851  0.2302 -0.3263
16259SOL    HW250219   0.537   6.703  10.026  0.0218  0.7769 -0.5049
16260SOL     OW50220   3.680   6.410   6.115  0.5071  0.1477  0.1771
16260SOL    HW150221   3.677   6.490   6.062  2.0943  2.0684  2.7171
16260SOL    HW250222   3.609   6.421   6.179  1.6340  0.3192  1.4556
16261SOL     OW50223   2.085   1.110   1.168  0.1732  0.6423 -0.9537
16261SOL    HW150224   2.070   1.185   1.227 -0.7556  0.9702 -1.5872
16261SOL    HW250225   2.087   1.034   1.226  0.8872  1.1165 -0.3259
16262SOL     OW50226   1.292   0.076  11.169 -0.2600 -0.0680 -0.6555
16262SOL    HW150227   1.387   0.077  11.183 -0.3670  1.4998  0.1961
16262SOL    HW250228   1.267  -0.015  11.182  0.9624 -0.2919  0.3108
16263SOL     OW50229   6.932   3.747   5.351 -0.1947 -0.2384 -0.8056
16263SOL    HW150230   6.981   3.821   5.313 -0.4724  0.1858 -0.3432
16263SOL    HW250231   6.867   3.725   5.284 -0.0280 -0.1498 -1.0001
16264SOL     OW50232   5.551   1.070   9.301 -0.0141  0.5744  0.1701
16264SOL    HW150233   5.472   1.060   9.248  0.2333 -0.3179 -0.0422
16264SOL    HW250234   5.519   1.099   9.387 -0.4963  1.0200 -0.1600
16265SOL     OW50235   0.851   6.638   1.907 -0.1658  0.6333 -0.1857
16265SOL    HW150236   0.872   6.634   2.000 -1.3470 -0.9797  0.0555
16265SOL    HW250237   0.930   6.605   1.863  0.4438  1.5273  0.2106
16266SOL     OW50238   5.529   4.496   7.178 -0.3759 -0.4261  0.0547
16266SOL    HW150239   5.435   4.483   7.161 -0.8805  0.7684  1.5886
16266SOL    HW250240   5.534   4.506   7.273  1.3371 -0.5992  0.0089
16267SOL     OW50241   3.353   0.976   4.584 -0.2302 -0.4113 -0.1447
16267SOL    HW150242   3.445   0.993   4.566 -0.5374  0.4198 -1.0109
16267SOL    HW250243   3.315   0.957   4.499 -1.0644  0.3137  0.0490
16268SOL     OW50244   3.124   7.387   0.190 -0.0862  0.3123 -0.2951
16268SOL    HW150245   3.135   7.299   0.227  0.1149  0.1280 -0.7789
16268SOL    HW250246   3.030   7.396   0.177 -0.0663 -0.0288 -0.7053
16269SOL     OW50247   1.397   4.935   7.776  0.7424  0.4089 -0.6485
16269SOL    HW150248   1.403   4.967   7.866  2.3463 -0.3459 -0.4654
16269SOL    HW250249   1.303   4.918   7.764  0.5658 -0.0534  1.0797
16270SOL     OW50250   6.812   2.620   5.236  0.4522  0.0781  0.3075
16270SOL    HW150251   6.738   2.570   5.201  0.0609 -0.5018  1.8585
16270SOL    HW250252   6.883   2.555   5.243  0.2685 -0.0316  1.3215
16271SOL     OW50253   4.005   0.347   1.430  0.1896 -0.2879  0.8942
16271SOL    HW150254   4.093   0.375   1.457  0.3558 -0.5319  0.5967
16271SOL    HW250255   3.948   0.417   1.463  0.5132 -0.0301  0.9192
16272SOL     OW50256   6.945   0.284   1.933  0.4234  0.2969 -0.3172
16272SOL    HW150257   6.958   0.302   2.026 -0.2279  0.8931 -0.3316
16272SOL    HW250258   6.912   0.367   1.897  0.7320  0.0916 -1.0929
16273SOL     OW50259   0.645   5.318   8.685 -0.2426 -0.4489 -0.1056
16273SOL    HW150260   0.631   5.228   8.656 -0.6416 -0.1107 -0.9985
16273SOL    HW250261   0.699   5.357   8.616  2.3320 -0.7471  1.5950
16274SOL     OW50262   0.886   7.568   4.082  0.0050  0.1633 -0.6188
16274SOL    HW150263   0.837   7.649   4.095 -0.8169 -0.1553 -1.5466
16274SOL    HW250264   0.945   7.562   4.157 -1.5548  0.4478  0.6853
16275SOL     OW50265   5.840   2.895   8.960  0.2515  0.9864  0.6639
16275SOL    HW150266   5.755   2.937   8.971  1.4666  3.4346  1.5558
16275SOL    HW250267   5.873   2.884   9.049  1.1891  0.8153  0.3092
16276SOL     OW50268   0.229   5.538  12.311 -0.1495  0.9372 -0.2316
16276SOL    HW150269   0.184   5.493  12.239  0.9080  1.8956 -1.5405
16276SOL    HW250270   0.158   5.576  12.363 -1.2738 -3.6292  2.0786
16277SOL     OW50271   5.987   3.017   5.912  0.4332  0.0232 -0.4202
16277SOL    HW150272   5.995   3.112   5.914 -2.5427  0.5330 -3.2548
16277SOL    HW250273   5.899   3.000   5.945  0.1411 -1.4968 -1.8344
16278SOL     OW50274   5.263   2.414  12.122  0.1568  0.2928 -0.0760
16278SOL    HW150275   5.260   2.325  12.157  0.5209  0.2015 -0.2715
16278SOL    HW250276   5.174   2.447  12.130 -0.4779 -0.8370 -1.9350
16279SOL     OW50277   0.477   3.277  12.168  0.1736 -0.1123 -0.4787
16279SOL    HW150278   0.436   3.263  12.253 -0.2956 -1.0817 -0.8449
16279SOL    HW250279   0.435   3.213  12.111  1.4943 -0.4352 -1.1133
16280SOL     OW50280   2.423   6.217   7.137  0.5992 -0.0921 -0.2331
16280SOL    HW150281   2.354   6.198   7.074  1.3427  0.0671 -1.1221
16280SOL    HW250282   2.381   6.207   7.222 -0.6716  0.5604 -0.7492
16281SOL     OW50283   2.922   4.628  11.546  0.1868  0.0192 -0.7551
16281SOL    HW150284   2.896   4.624  11.638  0.7902  0.0348 -0.5830
16281SOL    HW250285   2.840   4.646  11.499 -0.2963 -0.9727 -0.3175
16282SOL     OW50286   7.178   7.952   0.592  0.1450  0.1516 -0.0795
16282SOL    HW150287   7.094   7.912   0.571  0.5479 -0.2313 -1.0257
16282SOL    HW250288   7.156   8.036   0.632 -0.6943  0.8211 -1.8472
16283SOL     OW50289   7.688   0.299   7.761 -0.1202  0.4953  0.8147
16283SOL    HW150290   7.613   0.352   7.736  0.0890 -0.0065 -1.0555
16283SOL    HW250291   7.702   0.241   7.686  1.8001  0.2156  1.3368
16284SOL     OW50292   4.513   5.329   8.357 -0.0723 -0.4513  0.6072
16284SOL    HW150293   4.425   5.348   8.390  0.9415  1.1659  2.6093
16284SOL    HW250294   4.536   5.404   8.303 -0.3142 -1.4245 -0.9231
16285SOL     OW50295   6.613   2.182  11.018 -0.4260  0.2507  0.4623
16285SOL    HW150296   6.611   2.238  11.095 -0.1234  0.0205  0.6391
16285SOL    HW250297   6.680   2.220  10.962  0.6438 -0.6147  1.1115
16286SOL     OW50298   1.598   3.899  12.243  0.2680  0.0456 -0.5675
16286SOL    HW150299   1.651   3.901  12.323  0.9270 -0.1212 -0.9860
16286SOL    HW250300   1.519   3.949  12.264  0.5618  0.2376  0.0940
16287SOL     OW50301   2.026   1.971   5.133  0.0870  0.1903 -0.1182
16287SOL    HW150302   1.959   1.950   5.068 -1.5389 -0.0672  1.5160
16287SOL    HW250303   2.001   2.058   5.165 -0.0191 -0.2673  1.1103
16288SOL     OW50304   6.254   6.825   2.213 -0.0557 -0.1123  0.3902
16288SOL    HW150305   6.270   6.739   2.175 -0.2734 -0.4262  0.9971
16288SOL    HW250306   6.296   6.822   2.299 -0.4965  0.2135  0.6203
16289SOL     OW50307   0.324   3.542   6.878  0.6164  0.0232  0.4682
16289SOL    HW150308   0.358   3.597   6.807 -2.9041  1.5299 -0.2479
16289SOL    HW250309   0.295   3.604   6.945  0.1688 -1.1911  1.4357
16290SOL     OW50310   7.563   4.986  11.168 -0.1399  0.2173  0.0918
16290SOL    HW150311   7.485   5.010  11.117  0.8080  2.0972 -0.5548
16290SOL    HW250312   7.616   5.065  11.170  1.8640 -1.0603  0.3574
16291SOL     OW50313   1.382   3.195   9.345  0.0332  0.0902 -0.3755
16291SOL    HW150314   1.419   3.276   9.380  0.1905 -0.1465  0.0049
16291SOL    HW250315   1.448   3.129   9.361  0.5649  0.1602 -2.0585
16292SOL     OW50316   0.053   4.264   5.750 -0.4031  0.1795  0.2962
16292SOL    HW150317   0.132   4.286   5.701 -0.3433 -1.3042 -0.3439
16292SOL    HW250318  -0.019   4.279   5.688 -0.6279  1.3884  0.8292
16293SOL     OW50319   6.138   6.532   0.902 -0.0219  0.1734  0.0055
16293SOL    HW150320   6.206   6.590   0.938 -1.0369  1.5878 -0.2603
16293SOL    HW250321   6.086   6.507   0.978 -0.8948  1.4371 -0.1445
16294SOL     OW50322   0.634   0.785  10.835 -0.2598 -0.3201 -0.4814
16294SOL    HW150323   0.546   0.749  10.842 -0.0771 -0.5963  0.6040
16294SOL    HW250324   0.624   0.863  10.780 -1.4202  0.3849  0.6708
16295SOL     OW50325   4.420   1.067   3.555  0.0005 -0.3601 -0.2626
16295SOL    HW150326   4.448   0.992   3.503  0.3004  0.4598 -1.3286
16295SOL    HW250327   4.496   1.126   3.554 -0.0640 -0.2353  0.9444
16296SOL     OW50328   5.675   2.819   7.199  0.0807 -0.2137  0.4868
16296SOL    HW150329   5.701   2.773   7.279  0.5044 -1.6965 -0.4585
16296SOL    HW250330   5.592   2.860   7.220  0.3138 -0.3769  1.7595
16297SOL     OW50331   6.465   7.705   8.276  0.2675 -0.2844  0.0288
16297SOL    HW150332   6.391   7.668   8.323 -0.0793  3.0428  2.4576
16297SOL    HW250333   6.540   7.692   8.335  1.4150 -2.1896 -1.7033
16298SOL     OW50334   6.804   2.748   2.530 -0.1358 -0.2172  1.1658
16298SOL    HW150335   6.818   2.826   2.477 -0.5176 -1.0669 -0.2358
16298SOL    HW250336   6.884   2.697   2.519 -1.1323 -1.5063 -0.6020
16299SOL     OW50337   0.818   7.421   6.113 -0.2996 -0.2705 -0.0832
16299SOL    HW150338   0.847   7.403   6.202 -0.1000 -1.8582 -0.4540
16299SOL    HW250339   0.895   7.410   6.059 -1.0185 -2.2866 -0.7920
16300SOL     OW50340   0.057   5.945   6.882 -0.4356  0.2287  0.1394
16300SOL    HW150341  -0.006   5.927   6.952  0.7126 -1.8429  0.7162
16300SOL    HW250342   0.122   6.001   6.922 -0.1689 -0.3577  0.5396
16301SOL     OW50343   0.962   2.898   7.462  0.0231  0.1400  0.0442
16301SOL    HW150344   0.943   2.871   7.372  2.5034  1.7476 -1.0610
16301SOL    HW250345   0.960   2.994   7.459 -2.4014  0.2918  2.3868
16302SOL     OW50346   1.530   6.301   6.795  0.3552  0.0569 -0.2563
16302SOL    HW150347   1.440   6.304   6.763 -0.3018 -1.4544  1.3077
16302SOL    HW250348   1.529   6.352   6.876  0.8036 -0.3705  0.0212
16303SOL     OW50349   2.715   7.528   3.482 -0.0383 -0.3676 -0.1524
16303SOL    HW150350   2.656   7.454   3.467 -0.2913 -0.6150  1.7777
16303SOL    HW250351   2.658   7.599   3.511  0.5279 -0.4541  1.2485
16304SOL     OW50352   3.545   2.166  11.701  0.2112  1.1216  0.1079
16304SOL    HW150353   3.594   2.134  11.777  0.4123  0.5988 -0.2385
16304SOL    HW250354   3.607   2.222  11.654  0.1601  1.2602  0.2060
16305SOL     OW50355   2.186   0.408  10.529  0.5902 -0.2670  0.0650
16305SOL    HW150356   2.112   0.354  10.505 -0.4525  1.9230 -2.0160
16305SOL    HW250357   2.169   0.432  10.621 -0.2263 -1.3459  0.2172
16306SOL     OW50358   7.166   7.667   0.284  0.4017  0.2678 -0.1574
16306SOL    HW150359   7.142   7.661   0.376  0.9924  1.1621  0.0626
16306SOL    HW250360   7.095   7.622   0.238  1.4882 -2.7338  0.8823
16307SOL     OW50361   0.512   5.785   0.959 -0.4589 -0.1304  0.4762
16307SOL    HW150362   0.475   5.873   0.948  0.5248  0.7756  3.3497
16307SOL    HW250363   0.482   5.736   0.882 -0.0820  3.0031 -1.8754
16308SOL     OW50364   5.242   6.433   3.480 -0.1123  0.0277  0.1991
16308SOL    HW150365   5.248   6.343   3.447  2.0851 -0.0938  0.8032
16308SOL    HW250366   5.166   6.470   3.434 -2.0757 -2.5790  1.1122
16309SOL     OW50367   7.954   2.176  11.838 -0.0101 -0.1392 -0.1025
16309SOL    HW150368   7.875   2.122  11.833 -1.6742  2.2191 -1.1941
16309SOL    HW250369   7.951   2.230  11.759  3.5123 -0.9131 -0.9158
16310SOL     OW50370   2.320   2.392  11.007 -0.3077 -0.8465 -0.2972
16310SOL    HW150371   2.334   2.342  10.927  1.2925 -1.8394  0.5584
16310SOL    HW250372   2.407   2.417  11.035 -0.6645 -1.9868  2.0394
16311SOL     OW50373   0.012   2.803   6.639  1.0393 -0.1140 -0.5708
16311SOL    HW150374  -0.018   2.729   6.691  1.5195  0.4391  0.5323
16311SOL    HW250375  -0.059   2.867   6.646  0.5993 -0.4690 -1.5691
16312SOL     OW50376   0.970   5.376  10.354 -0.4903  0.0767  0.1383
16312SOL    HW150377   0.986   5.334  10.438  1.2812 -0.9507 -0.6593
16312SOL    HW250378   1.056   5.408  10.325 -1.0194  0.2577 -1.3569
16313SOL     OW50379   4.214   2.752   0.593  0.2558 -0.3673 -0.0547
16313SOL    HW150380   4.246   2.694   0.661  0.0672  0.0196  0.3676
16313SOL    HW250381   4.199   2.695   0.518 -1.6535 -1.2123  0.8914
16314SOL     OW50382   1.119   7.775   5.269  0.1155 -0.0161  0.1997
16314SOL    HW150383   1.192   7.740   5.218 -0.5402 -1.6758  0.3397
16314SOL    HW250384   1.086   7.700   5.319 -1.2621  0.8483  0.6541
16315SOL     OW50385   0.211   3.519  12.116  0.7141 -0.5314  0.4414
16315SOL    HW150386   0.235   3.431  12.086 -0.3120  0.0739 -2.5249
16315SOL    HW250387   0.117   3.525  12.098  1.0951  1.7336 -1.1329
16316SOL     OW50388   6.310   4.768  11.533 -0.2071  0.1082  0.0069
16316SOL    HW150389   6.280   4.710  11.602  0.1496 -1.4433 -1.0932
16316SOL    HW250390   6.404   4.753  11.527 -0.3236 -0.2577 -1.2206
16317SOL     OW50391   5.849   5.699   0.691 -0.0937 -0.6651  0.0043
16317SOL    HW150392   5.836   5.746   0.773  0.5694 -0.2725 -0.1064
16317SOL    HW250393   5.856   5.607   0.716  0.9492 -0.4656  0.4954
16318SOL     OW50394   0.097   5.739   5.962 -0.1599 -0.1955 -0.8780
16318SOL    HW150395   0.045   5.793   5.902  0.3063 -0.0119 -1.1273
16318SOL    HW250396   0.176   5.718   5.912  1.9093  2.8806  0.8058
16319SOL     OW50397   0.342   3.752   2.158 -0.0414 -0.1694 -0.1096
16319SOL    HW150398   0.255   3.790   2.173 -0.8937 -1.2879 -1.8982
16319SOL    HW250399   0.338   3.667   2.203  0.2175 -0.1143  0.0147
16320SOL     OW50400   7.498   6.456   3.933 -0.0818 -0.4959  0.1170
16320SOL    HW150401   7.510   6.535   3.986  0.4664 -0.5579  0.0921
16320SOL    HW250402   7.511   6.485   3.843 -2.3311 -0.1189 -0.1227
16321SOL     OW50403   6.303   4.665   8.002 -0.3371  0.2820 -0.2998
16321SOL    HW150404   6.210   4.642   7.995 -0.1226 -0.6883 -0.0618
16321SOL    HW250405   6.338   4.654   7.914 -0.1475 -0.7090 -0.1044
16322SOL     OW50406   7.253   7.001   8.074 -0.3311  0.3843 -0.3097
16322SOL    HW150407   7.194   7.031   8.006  0.9714  2.4729 -0.5988
16322SOL    HW250408   7.198   6.992   8.152 -0.9808  2.8946 -0.4011
16323SOL     OW50409   5.737   2.672   5.200 -0.3749 -0.6497 -0.2236
16323SOL    HW150410   5.719   2.766   5.204 -0.5767 -0.7244  1.2759
16323SOL    HW250411   5.832   2.665   5.206 -0.3277 -0.5238 -0.8203
16324SOL     OW50412   5.207   2.544   4.759 -0.2456 -0.0744 -0.3741
16324SOL    HW150413   5.261   2.566   4.835 -0.3884 -0.7611 -0.0626
16324SOL    HW250414   5.141   2.484   4.793  0.4127 -1.3581 -1.2550
16325SOL     OW50415   0.338   2.277   1.687 -0.3649 -0.1791 -0.1038
16325SOL    HW150416   0.290   2.221   1.748 -0.6372 -1.5606 -1.5039
16325SOL    HW250417   0.275   2.346   1.664 -0.3253  0.2455  0.9823
16326SOL     OW50418   3.377   6.860   6.666  0.4640 -0.2439 -0.3933
16326SOL    HW150419   3.304   6.897   6.715  0.9368 -0.8458  0.7888
16326SOL    HW250420   3.358   6.884   6.575  0.6720  2.7606  0.2575
16327SOL     OW50421   6.395   3.705   7.869 -0.5725  0.3597 -0.3327
16327SOL    HW150422   6.348   3.640   7.921  0.3886  0.1141  0.2555
16327SOL    HW250423   6.457   3.654   7.817 -0.4031  0.7380 -0.5072
16328SOL     OW50424   6.637   3.605   5.571  0.1118 -0.2621  0.4620
16328SOL    HW150425   6.707   3.669   5.585  0.2020 -0.4295  0.7935
16328SOL    HW250426   6.662   3.558   5.492  0.4809 -0.4667  0.7006
16329SOL     OW50427   2.281   1.995  11.955  0.2359  0.6534 -0.3146
16329SOL    HW150428   2.250   1.918  12.004 -1.4483  3.7408  4.1424
16329SOL    HW250429   2.245   1.983  11.867  0.7632 -3.9155 -0.1520
16330SOL     OW50430   0.324   5.146   4.213 -0.0945  0.0442 -0.0623
16330SOL    HW150431   0.328   5.233   4.252  1.0388 -0.4638  1.0442
16330SOL    HW250432   0.415   5.126   4.191 -0.3801 -0.7601 -0.5588
16331SOL     OW50433   4.862   7.314   1.968 -0.3560 -0.0346  0.3263
16331SOL    HW150434   4.829   7.296   1.880  0.5665 -1.4794  0.2438
16331SOL    HW250435   4.952   7.343   1.953 -0.5292  0.7171  0.7378
16332SOL     OW50436   3.163   6.941   8.996 -0.2095  0.3951  0.1122
16332SOL    HW150437   3.212   7.020   9.018  0.4163 -0.2099  0.9756
16332SOL    HW250438   3.230   6.874   8.982 -0.7619 -0.5958  1.8977
16333SOL     OW50439   4.814   4.254  10.073  0.0953  0.3179 -0.3949
16333SOL    HW150440   4.809   4.160  10.059 -0.8926  0.6031 -2.2432
16333SOL    HW250441   4.883   4.284  10.013 -0.9187  0.9963 -1.2468
16334SOL     OW50442   4.340   2.906   2.701  0.4840 -0.8439 -0.0270
16334SOL    HW150443   4.419   2.923   2.751 -0.4640  0.3154  1.1317
16334SOL    HW250444   4.332   2.981   2.642 -0.1835 -0.5327  0.4466
16335SOL     OW50445   2.086   0.939   5.856  0.2455  0.4357 -0.3309
16335SOL    HW150446   2.007   0.984   5.887  0.1888  0.6498 -0.7773
16335SOL    HW250447   2.055   0.853   5.828  0.4257 -0.0655  0.9459
16336SOL     OW50448   3.991   3.104   1.401 -0.1299  0.4833 -0.5350
16336SOL    HW150449   3.965   3.188   1.439 -1.8357 -0.1797 -0.1823
16336SOL    HW250450   3.982   3.117   1.307 -2.8735 -0.0224 -0.4124
16337SOL     OW50451   0.670   2.102   9.155 -0.0943 -0.1618  0.1193
16337SOL    HW150452   0.719   2.070   9.231 -0.7602 -0.6851  0.3415
16337SOL    HW250453   0.598   2.154   9.193 -1.3651 -1.7198 -0.0551
16338SOL     OW50454   5.686   0.110   2.867 -0.1768  0.0582  0.1613
16338SOL    HW150455   5.649   0.165   2.936  1.0962  0.2995  0.6829
16338SOL    HW250456   5.767   0.076   2.905  0.2655 -0.2573 -1.0305
16339SOL     OW50457   4.195   7.739   3.570 -0.3456 -0.4426 -0.2343
16339SOL    HW150458   4.131   7.736   3.641 -0.7134  0.8460 -0.4822
16339SOL    HW250459   4.142   7.730   3.490 -0.1313 -0.2036 -0.4041
16340SOL     OW50460   2.362   3.585   1.722 -0.2381  0.8746  0.1473
16340SOL    HW150461   2.271   3.598   1.695 -0.5549 -0.8917  0.2564
16340SOL    HW250462   2.356   3.551   1.811  0.5930  1.7310  0.5449
16341SOL     OW50463   6.447   3.230   4.988 -0.1473  0.0857 -0.0761
16341SOL    HW150464   6.362   3.195   5.013 -0.3094  0.1411 -0.5437
16341SOL    HW250465   6.462   3.195   4.900 -0.1158  0.8393 -0.3756
16342SOL     OW50466   3.954   3.821  12.264  0.5352  0.3122  0.3987
16342SOL    HW150467   3.958   3.744  12.321 -1.1038  1.2085  1.8382
16342SOL    HW250468   4.008   3.886  12.309  0.8944  0.3993 -0.1540
16343SOL     OW50469   5.895   7.158   4.184 -0.0865 -0.6379  0.2844
16343SOL    HW150470   5.820   7.216   4.196  0.2055 -0.4720  1.3766
16343SOL    HW250471   5.936   7.188   4.103 -0.4020  0.1511  0.4117
16344SOL     OW50472   7.677   4.578   5.237  0.1777  0.1243  0.5680
16344SOL    HW150473   7.696   4.668   5.266  0.9782  0.4181 -0.7443
16344SOL    HW250474   7.646   4.589   5.147 -1.0667 -0.8301  0.8581
16345SOL     OW50475   5.701   7.208   1.572 -0.1333 -0.7004 -0.1759
16345SOL    HW150476   5.718   7.278   1.509 -1.4346 -0.9241 -0.8104
16345SOL    HW250477   5.734   7.241   1.655  0.1179  0.2749 -0.6571
16346SOL     OW50478   2.984   7.414   7.630  0.2854 -0.2947  0.5793
16346SOL    HW150479   2.984   7.488   7.569  0.5381  0.2513  1.2272
16346SOL    HW250480   3.076   7.388   7.635  0.3910  0.1848  1.3312
16347SOL     OW50481   0.437   1.080   3.969  0.2828 -0.0429  0.3930
16347SOL    HW150482   0.354   1.033   3.977  0.0322  0.1550 -0.8205
16347SOL    HW250483   0.431   1.150   4.034 -0.6642  0.1886  0.0806
16348SOL     OW50484   0.265   2.070   3.438 -0.2846  0.2475 -0.3918
16348SOL    HW150485   0.215   2.095   3.515  0.9038  0.1293  0.4401
16348SOL    HW250486   0.201   2.026   3.382 -0.9350 -0.6821  1.0166
16349SOL     OW50487   1.722   6.774  11.483  0.2617 -0.0139 -0.0709
16349SOL    HW150488   1.700   6.838  11.551 -1.0522 -0.0743 -0.4172
16349SOL    HW250489   1.787   6.819  11.429 -0.2882  0.8615 -0.0300
16350SOL     OW50490   5.774   1.448   6.785 -0.2195 -0.1957  0.0500
16350SOL    HW150491   5.754   1.420   6.875 -1.0361  1.2785  0.3578
16350SOL    HW250492   5.711   1.517   6.767  1.1095  0.7977 -1.0038
16351SOL     OW50493   1.121   1.111  10.650  0.6225 -0.0890 -0.4440
16351SOL    HW150494   1.196   1.164  10.678  0.3471 -0.3287  0.8296
16351SOL    HW250495   1.080   1.083  10.732  0.0755 -1.3031 -1.1058
16352SOL     OW50496   1.206   6.510   3.427  0.6975 -0.2115 -0.2021
16352SOL    HW150497   1.163   6.483   3.346 -0.0173 -0.9690  0.4144
16352SOL    HW250498   1.230   6.602   3.412  0.0538 -0.1717 -1.0546
16353SOL     OW50499   3.462   6.112   7.029 -0.1972  0.3019 -0.1449
16353SOL    HW150500   3.462   6.189   7.086  0.5879 -0.0430  0.3265
16353SOL    HW250501   3.546   6.114   6.984  0.0167 -0.5064  0.1886
16354SOL     OW50502   4.908   0.571   0.169 -0.2180  0.8484  0.0187
16354SOL    HW150503   4.836   0.603   0.115 -1.1911 -1.9698 -0.5340
16354SOL    HW250504   4.961   0.518   0.110  1.3812  1.4635  0.8317
16355SOL     OW50505   6.682   5.804   2.857 -0.3668  0.6254  0.3156
16355SOL    HW150506   6.645   5.866   2.919  0.3085  0.1893  1.1800
16355SOL    HW250507   6.763   5.846   2.827  0.5136 -0.1278  1.5064
16356SOL     OW50508   6.984   7.667   6.106 -0.0538  0.4081 -0.1797
16356SOL    HW150509   6.906   7.717   6.130 -0.8503 -0.5467 -0.7221
16356SOL    HW250510   7.016   7.710   6.027  0.2208  1.0503  0.2669
16357SOL     OW50511   0.499   0.778   0.277 -0.1910  0.2963 -0.0945
16357SOL    HW150512   0.415   0.775   0.323 -0.4781  1.6324 -0.4705
16357SOL    HW250513   0.535   0.690   0.286 -1.6035 -0.2904  0.1403
16358SOL     OW50514   3.600   1.812   1.777 -0.1878 -0.1491  0.4809
16358SOL    HW150515   3.616   1.759   1.698  1.6532  0.3474  0.4702
16358SOL    HW250516   3.633   1.757   1.849  0.4349  0.3927  0.6167
16359SOL     OW50517   4.606   5.385   0.977 -0.1228  0.0888  0.0509
16359SOL    HW150518   4.645   5.308   0.936 -1.3144 -0.3039 -0.3883
16359SOL    HW250519   4.531   5.351   1.026  0.0237  0.8304  0.8097
16360SOL     OW50520   1.757   0.039   8.052 -0.2644 -0.6364 -1.3188
16360SOL    HW150521   1.795   0.004   7.972 -0.4310  1.1382 -2.2076
16360SOL    HW250522   1.831   0.076   8.100 -0.3133 -0.7965 -1.1159
16361SOL     OW50523   0.632   4.884   4.265 -0.1005  0.4220  0.6572
16361SOL    HW150524   0.650   4.818   4.199 -1.3686  0.5999  0.1060
16361SOL    HW250525   0.566   4.844   4.321  2.7718 -0.8016  3.5088
16362SOL     OW50526   0.553   7.886  11.914 -0.4495 -0.2031  0.0537
16362SOL    HW150527   0.555   7.846  12.001  1.5093 -0.1233  0.0894
16362SOL    HW250528   0.577   7.978  11.929 -1.9536  0.2944 -0.3826
16363SOL     OW50529   7.651   7.398   7.788 -0.3527  0.5169  0.2312
16363SOL    HW150530   7.643   7.315   7.835 -1.5222  2.2021  3.3065
16363SOL    HW250531   7.720   7.446   7.835  0.0367  1.4405 -1.2320
16364SOL     OW50532   2.405   4.024  12.126 -0.1630  0.0540 -0.1285
16364SOL    HW150533   2.373   4.063  12.045  1.3570  0.0978 -0.7413
16364SOL    HW250534   2.449   4.096  12.171  0.4590 -0.3568 -0.0717
16365SOL     OW50535   0.265   2.055   8.214  0.1140  0.3202 -0.3757
16365SOL    HW150536   0.254   2.007   8.295 -1.9954  0.2712 -0.6292
16365SOL    HW250537   0.358   2.078   8.211  0.4653 -0.7477  1.4157
16366SOL     OW50538   0.352   2.524   1.315 -0.3873  0.6894  0.2615
16366SOL    HW150539   0.265   2.541   1.351 -0.4393 -0.4729  0.7214
16366SOL    HW250540   0.408   2.508   1.391 -0.0542  0.1955 -0.0753
16367SOL     OW50541   3.015   6.552   1.868 -0.3261 -0.1415  0.1499
16367SOL    HW150542   3.034   6.638   1.907 -0.8088 -1.1362  2.7718
16367SOL    HW250543   3.088   6.537   1.807 -0.1137  2.0067 -0.2094
16368SOL     OW50544   0.146   3.664   9.305  0.3323 -0.4187  0.3966
16368SOL    HW150545   0.215   3.728   9.319  0.4577 -0.0994 -1.5070
16368SOL    HW250546   0.192   3.582   9.289  0.3086 -0.1546 -1.1251
16369SOL     OW50547   6.992   5.049  10.129  0.4942  0.1676 -0.2101
16369SOL    HW150548   7.017   5.026  10.218  0.4162 -0.8038 -0.4179
16369SOL    HW250549   6.896   5.039  10.128  0.4734  0.3895 -0.3403
16370SOL     OW50550   3.252   6.554  12.025  0.5419 -0.1618  0.1654
16370SOL    HW150551   3.340   6.592  12.020 -0.0753  1.2344 -2.1942
16370SOL    HW250552   3.262   6.465  11.992  0.9619  0.2916 -0.9779
16371SOL     OW50553   4.279   3.849   8.783 -0.2976  0.0790 -0.1746
16371SOL    HW150554   4.318   3.876   8.700 -0.4751 -1.8812 -0.9444
16371SOL    HW250555   4.307   3.758   8.795 -3.1769 -0.8791  0.0852
16372SOL     OW50556   0.075   1.412   6.045 -0.1232  0.0714  0.1473
16372SOL    HW150557   0.076   1.393   5.951  3.0582  1.4113 -0.2083
16372SOL    HW250558   0.028   1.495   6.052 -3.2427 -1.5698  0.2434
16373SOL     OW50559   0.060   5.591   3.813 -0.6610 -0.2102  0.2832
16373SOL    HW150560   0.097   5.667   3.768  0.1451 -0.2823  0.8168
16373SOL    HW250561  -0.033   5.591   3.787 -0.7124  1.0486  0.4279
16374SOL     OW50562   7.756   2.589   4.084 -0.2715 -0.3172  0.1220
16374SOL    HW150563   7.808   2.642   4.145 -0.0912 -1.4075  0.9512
16374SOL    HW250564   7.697   2.539   4.140 -0.3154 -1.1140 -0.6083
16375SOL     OW50565   5.750   2.151   0.270 -0.2916  0.6365 -0.0058
16375SOL    HW150566   5.769   2.164   0.178 -0.8180  0.5789 -0.1256
16375SOL    HW250567   5.825   2.103   0.304  1.3034  3.0923  0.2483
16376SOL     OW50568   2.110   7.547   6.863  0.0085  0.2738  0.3712
16376SOL    HW150569   2.026   7.572   6.825  0.2342 -1.3407 -1.3137
16376SOL    HW250570   2.133   7.465   6.819  1.4978 -0.3941  2.2758
16377SOL     OW50571   7.529   6.156   4.954 -0.1014 -0.2240 -0.2003
16377SOL    HW150572   7.591   6.157   4.881  0.2100  0.7580  0.0613
16377SOL    HW250573   7.525   6.247   4.984 -1.7809 -0.2162 -0.3058
16378SOL     OW50574   3.616   7.524   5.248  0.0191  0.4999 -0.0423
16378SOL    HW150575   3.671   7.602   5.242 -0.0238  0.4780 -0.6953
16378SOL    HW250576   3.663   7.466   5.308 -0.5754  1.5416  1.5012
16379SOL     OW50577   1.352   5.012   7.503  0.0520 -0.0396  0.0167
16379SOL    HW150578   1.417   5.079   7.480 -0.1431  1.2653  2.8405
16379SOL    HW250579   1.368   4.994   7.595 -1.9341 -1.6446  0.1174
16380SOL     OW50580   3.580   7.286   0.546  0.8238 -0.0567  0.0256
16380SOL    HW150581   3.636   7.319   0.616  0.1856 -1.8194  1.4160
16380SOL    HW250582   3.638   7.230   0.493  0.6070 -1.2153  0.9819
16381SOL     OW50583   1.899   3.802  10.157 -0.1289 -0.0715  0.1413
16381SOL    HW150584   1.852   3.840  10.083  0.9725  1.3208  0.1246
16381SOL    HW250585   1.947   3.728  10.120  0.9710  1.0390 -0.6946
16382SOL     OW50586   2.300   3.479   9.020 -0.3699  0.4686 -0.2192
16382SOL    HW150587   2.279   3.525   9.101 -1.6980  1.6834 -1.2106
16382SOL    HW250588   2.384   3.515   8.993 -0.0406  0.2351  0.4862
16383SOL     OW50589   7.618   4.834  10.741  0.3263  0.0185  0.0330
16383SOL    HW150590   7.539   4.835  10.796 -0.4753 -1.0450 -1.0602
16383SOL    HW250591   7.617   4.919  10.697 -0.6526 -0.2854 -0.5658
16384SOL     OW50592   7.679   3.624   8.638 -0.3538  0.5431  0.0583
16384SOL    HW150593   7.602   3.605   8.693 -0.0754  0.2918  0.3634
16384SOL    HW250594   7.752   3.627   8.700 -0.4111  2.9391  0.0980
16385SOL     OW50595   5.614   6.843   4.749  0.1236  0.0467 -0.1060
16385SOL    HW150596   5.605   6.792   4.829  0.0929  1.8259  1.0645
16385SOL    HW250597   5.615   6.934   4.778  1.1022  0.7072 -2.0358
16386SOL     OW50598   1.294   4.268   0.971 -0.0391 -0.3350 -0.0537
16386SOL    HW150599   1.298   4.353   0.927  1.4018 -1.0354 -1.4024
16386SOL    HW250600   1.311   4.287   1.063 -1.2845  0.9912 -0.0696
16387SOL     OW50601   2.142   6.833   2.091 -0.4525  0.5497 -0.2686
16387SOL    HW150602   2.105   6.749   2.117  0.3552 -0.1185 -1.2304
16387SOL    HW250603   2.085   6.864   2.020  0.9972 -0.6818 -2.0449
16388SOL     OW50604   6.842   7.033   6.970 -0.1717  0.1397 -0.4364
16388SOL    HW150605   6.847   7.016   6.876  1.7613 -1.9308 -0.0676
16388SOL    HW250606   6.926   7.003   7.004 -0.8307  0.7817  1.9713
16389SOL     OW50607   5.993   3.527   4.176  0.7131  0.4153 -0.3774
16389SOL    HW150608   6.066   3.588   4.177  1.3900 -0.3822  0.5358
16389SOL    HW250609   5.957   3.534   4.087  1.2491  1.5580 -0.5227
16390SOL     OW50610   6.598   6.792   2.039  0.3721  0.1108 -0.2527
16390SOL    HW150611   6.635   6.880   2.040 -0.1765  0.3409 -0.0842
16390SOL    HW250612   6.592   6.770   1.945  0.0616  0.4425 -0.3116
16391SOL     OW50613   4.138   5.766   2.576 -0.4013 -0.3284 -0.0412
16391SOL    HW150614   4.115   5.714   2.499 -0.2238 -1.8574  0.8831
16391SOL    HW250615   4.215   5.722   2.613  2.4941  3.0240 -1.4816
16392SOL     OW50616   5.820   0.219  10.789  0.2731  0.1024 -0.0477
16392SOL    HW150617   5.814   0.220  10.693  0.3704  0.9990 -0.0568
16392SOL    HW250618   5.754   0.283  10.817  1.5378  1.2539  0.3881
16393SOL     OW50619   7.109   0.713   9.694  0.0674  0.1916 -0.0394
16393SOL    HW150620   7.054   0.669   9.629  0.0734  1.1051 -0.6754
16393SOL    HW250621   7.092   0.806   9.681 -0.2282  0.3887  1.5328
16394SOL     OW50622   4.383   3.582  11.012  0.0499  0.6468 -0.1356
16394SOL    HW150623   4.427   3.577  10.928 -1.1943 -1.1268 -0.7341
16394SOL    HW250624   4.425   3.513  11.065 -1.4252 -0.5747 -0.4823
16395SOL     OW50625   3.570   1.805   3.917 -0.2017  0.4350  0.2424
16395SOL    HW150626   3.570   1.777   3.825  0.8584 -1.8114  0.8540
16395SOL    HW250627   3.658   1.785   3.948 -0.5004  1.2700  1.7407
16396SOL     OW50628   4.776   4.566   8.531 -0.1358  0.3666 -0.1607
16396SOL    HW150629   4.851   4.605   8.487 -0.4988  0.5309 -0.6427
16396SOL    HW250630   4.702   4.623   8.508 -0.7770 -0.8712 -1.3287
16397SOL     OW50631   4.029   3.094   7.515  0.0152  0.0718  0.0682
16397SOL    HW150632   3.962   3.068   7.452 -0.6402  1.1530  0.2912
16397SOL    HW250633   4.102   3.125   7.462  0.2854 -0.9570 -0.1732
16398SOL     OW50634   6.102   4.216  11.063  0.4174  0.6869 -0.0366
16398SOL    HW150635   6.147   4.237  10.981  1.2083  0.5970  0.3677
16398SOL    HW250636   6.009   4.229  11.042  0.7026  2.3178 -0.4816
16399SOL     OW50637   4.367   5.353   2.020  0.4155 -0.7176  0.4926
16399SOL    HW150638   4.404   5.342   2.108  1.1832 -0.0857  0.2625
16399SOL    HW250639   4.427   5.306   1.963  0.2401 -0.6418  0.2473
16400SOL     OW50640   3.823   0.490   3.690  0.1132 -0.3804  0.3881
16400SOL    HW150641   3.801   0.397   3.681  1.0759 -0.4929 -1.0332
16400SOL    HW250642   3.805   0.510   3.782 -0.9873 -1.7304  0.4930
16401SOL     OW50643   6.224   0.527  11.624 -0.0205  0.1090  0.0542
16401SOL    HW150644   6.227   0.583  11.701 -1.6817  1.3465 -0.7420
16401SOL    HW250645   6.296   0.559  11.569 -0.5921  1.0803 -0.1378
16402SOL     OW50646   2.022   2.723   7.358 -0.1593 -0.2961  0.4144
16402SOL    HW150647   1.979   2.680   7.431  0.3407  0.3465  1.0977
16402SOL    HW250648   1.985   2.681   7.280 -0.0598 -1.5881  1.0422
16403SOL     OW50649   5.318   3.428   6.189 -0.0721 -0.0772  0.2475
16403SOL    HW150650   5.404   3.467   6.209 -0.0342  0.7213 -1.2938
16403SOL    HW250651   5.260   3.463   6.256  0.6805 -0.1487  0.9548
16404SOL     OW50652   4.803   7.550   6.422  0.0136  0.1774  0.6048
16404SOL    HW150653   4.838   7.479   6.475 -1.0888 -0.4575  0.5099
16404SOL    HW250654   4.786   7.511   6.337 -1.0595  0.4112  0.6987
16405SOL     OW50655   5.768   3.685   0.364  0.1513  0.0180 -0.0872
16405SOL    HW150656   5.673   3.679   0.377  0.2203 -0.6072  0.1524
16405SOL    HW250657   5.778   3.736   0.283 -0.3968 -0.1245 -0.2506
16406SOL     OW50658   2.355   1.667   4.006  0.1709 -0.2641  0.3092
16406SOL    HW150659   2.315   1.622   4.081 -0.4729 -0.5961 -0.2215
16406SOL    HW250660   2.318   1.755   4.008  0.9133  0.0554  0.9477
16407SOL     OW50661   6.250   3.652  12.380  0.6254 -0.5549 -0.2776
16407SOL    HW150662   6.287   3.598  12.310 -0.8853 -0.2311 -1.3822
16407SOL    HW250663   6.167   3.683  12.344 -0.0020 -0.0455  1.5250
16408SOL     OW50664   2.509   5.784   2.199  0.3549  0.1835 -1.1351
16408SOL    HW150665   2.558   5.829   2.131 -0.3139  0.2260 -1.6008
16408SOL    HW250666   2.423   5.767   2.160  0.2089 -0.4650 -0.5681
16409SOL     OW50667   5.885   4.961   6.734  0.1963  0.1946  0.2347
16409SOL    HW150668   5.976   4.970   6.705  0.2760  0.7112  0.6493
16409SOL    HW250669   5.882   5.001   6.821 -0.1811 -0.7967  0.6999
16410SOL     OW50670   0.327   5.081   2.416 -0.1097 -0.1447 -0.6201
16410SOL    HW150671   0.408   5.047   2.454 -0.8550  0.4257  1.6597
16410SOL    HW250672   0.340   5.176   2.413 -0.6286 -0.0600 -0.3806
16411SOL     OW50673   0.330   5.277   2.908  0.3487  0.2721  0.0958
16411SOL    HW150674   0.379   5.278   2.990  2.4478 -0.0707 -1.0749
16411SOL    HW250675   0.364   5.352   2.859 -1.8529  1.3012  0.0321
16412SOL     OW50676   4.916   2.995   1.493 -0.9877 -0.5378 -0.7511
16412SOL    HW150677   4.888   3.076   1.451 -0.6219 -0.4619 -0.8560
16412SOL    HW250678   5.002   3.016   1.529 -0.5711 -1.0919 -1.4072
16413SOL     OW50679   0.945   1.583   5.739 -0.2569 -0.3030  0.1551
16413SOL    HW150680   1.013   1.537   5.690  0.3966  1.1999 -0.4309
16413SOL    HW250681   0.985   1.603   5.824 -0.4401 -0.5713  0.3058
16414SOL     OW50682   0.103   4.786   7.811 -0.0968 -0.2383  0.0766
16414SOL    HW150683   0.107   4.691   7.801 -1.8403 -0.5411  1.8063
16414SOL    HW250684   0.088   4.819   7.723 -0.0285 -1.5947 -0.4606
16415SOL     OW50685   0.621   2.802   9.141 -0.4955 -0.0489 -0.1197
16415SOL    HW150686   0.680   2.863   9.186  1.6011 -1.1972 -1.2073
16415SOL    HW250687   0.631   2.823   9.049 -1.5797 -0.4878 -0.3505
16416SOL     OW50688   4.334   4.784   2.281  0.2315  0.0494  0.1897
16416SOL    HW150689   4.359   4.876   2.294 -0.3475  0.4069 -1.0332
16416SOL    HW250690   4.417   4.740   2.264  0.5101  0.3561  0.7203
16417SOL     OW50691   4.033   3.114  12.084  0.1103  0.0509  0.2024
16417SOL    HW150692   4.109   3.118  12.025 -0.7285 -0.1400 -0.9134
16417SOL    HW250693   3.990   3.031  12.061  0.2690 -0.4806  1.7349
16418SOL     OW50694   7.938   5.196   9.871 -0.4522  0.7236  0.5860
16418SOL    HW150695   7.941   5.238   9.957  0.3298  2.0410 -0.0484
16418SOL    HW250696   7.930   5.269   9.809 -0.6619 -0.1760 -0.4729
16419SOL     OW50697   7.535   5.822  10.775 -0.2339 -0.0849 -0.4692
16419SOL    HW150698   7.590   5.821  10.853 -0.1008 -1.1365 -0.5599
16419SOL    HW250699   7.513   5.730  10.760 -2.1670  0.3158 -0.3256
16420SOL     OW50700   1.249   7.496   1.190 -0.0499 -0.4846  0.5567
16420SOL    HW150701   1.280   7.424   1.244 -0.1064 -0.3479  0.7734
16420SOL    HW250702   1.162   7.517   1.226  0.1234 -0.0634  0.7382
16421SOL     OW50703   2.711   2.047   0.451 -0.5586 -0.0611 -0.0765
16421SOL    HW150704   2.734   2.109   0.520 -0.2426  0.3348 -0.5285
16421SOL    HW250705   2.670   2.101   0.383  0.0788 -0.2775 -0.6451
16422SOL     OW50706   7.942   1.680   1.911  0.6608 -0.3792  0.2320
16422SOL    HW150707   7.989   1.598   1.896  0.6649 -0.2955 -0.2212
16422SOL    HW250708   7.866   1.676   1.853  1.4504  0.5839 -0.9103
16423SOL     OW50709   2.931   0.140   6.627 -0.8979  0.7366  0.2795
16423SOL    HW150710   2.855   0.171   6.577 -0.4932  1.2676 -0.0264
16423SOL    HW250711   2.936   0.047   6.607 -1.2396  0.7754 -0.0084
16424SOL     OW50712   5.121   1.552   0.249  0.7079  0.3822 -0.3846
16424SOL    HW150713   5.109   1.647   0.256 -1.9220  0.1234 -0.2849
16424SOL    HW250714   5.099   1.532   0.158 -0.9457 -0.3242  0.1287
16425SOL     OW50715   2.921   5.471   9.735 -0.3653 -0.4984  0.5802
16425SOL    HW150716   2.863   5.495   9.663 -0.6973 -0.3666  0.8853
16425SOL    HW250717   2.891   5.525   9.809 -0.2101 -0.8342  0.8923
16426SOL     OW50718   5.895   4.068   0.865  0.3726  0.3189  0.3675
16426SOL    HW150719   5.886   4.154   0.826  1.0670 -0.0153 -0.5632
16426SOL    HW250720   5.822   4.061   0.926 -0.9227  0.7648 -1.0713
16427SOL     OW50721   5.098   6.474   8.245  0.2289 -0.1461 -0.3831
16427SOL    HW150722   5.044   6.553   8.251 -1.3953 -1.3298  2.4309
16427SOL    HW250723   5.038   6.406   8.214  0.4185 -1.1355  1.2583
16428SOL     OW50724   5.322   6.247  10.358 -0.1675 -0.1959 -0.4748
16428SOL    HW150725   5.391   6.313  10.355 -0.7176  0.4116  0.0560
16428SOL    HW250726   5.262   6.271  10.288  0.1452 -0.7294 -0.9416
16429SOL     OW50727   4.073   7.787   2.952 -0.3669 -0.0345  0.5616
16429SOL    HW150728   4.091   7.721   3.019 -1.2243 -0.4089  0.4404
16429SOL    HW250729   4.040   7.737   2.878 -2.3615  0.6083  0.9436
16430SOL     OW50730   3.509   4.063   3.520  0.1874 -0.2290  0.1128
16430SOL    HW150731   3.533   4.012   3.443  0.1708 -0.6719  0.4010
16430SOL    HW250732   3.425   4.026   3.548 -0.5995  0.9414 -0.5658
16431SOL     OW50733   1.320   0.168   0.740 -0.5134 -0.0486 -0.0915
16431SOL    HW150734   1.375   0.141   0.667  2.6278  0.1821  1.9960
16431SOL    HW250735   1.279   0.087   0.771  0.6165 -0.6890 -0.2125
16432SOL     OW50736   1.083   7.317   1.876  0.8568  0.3993  0.0766
16432SOL    HW150737   1.033   7.276   1.948 -3.4911  0.8120 -2.3617
16432SOL    HW250738   1.116   7.243   1.826  0.8233  0.0482  0.5600
16433SOL     OW50739   5.464   2.278  10.862  0.0427 -0.1366  0.3196
16433SOL    HW150740   5.371   2.276  10.839  0.4213  0.0061 -1.2858
16433SOL    HW250741   5.504   2.208  10.811  0.9818  0.4285  0.2437
16434SOL     OW50742   5.452   3.888   9.202 -0.2119  0.4902 -0.2685
16434SOL    HW150743   5.461   3.982   9.216  0.7306  0.2274  1.1808
16434SOL    HW250744   5.406   3.856   9.279  0.1387 -0.3308 -0.3814
16435SOL     OW50745   7.231   4.255   2.362 -0.3416 -0.3048 -0.5434
16435SOL    HW150746   7.196   4.192   2.426 -0.2210 -0.7488 -0.9133
16435SOL    HW250747   7.251   4.202   2.285  2.2051 -0.2772  0.0047
16436SOL     OW50748   4.150   0.896  10.003  0.0356  0.1489  0.3030
16436SOL    HW150749   4.180   0.828   9.942 -0.1561 -0.3807  0.7895
16436SOL    HW250750   4.080   0.941   9.955 -0.2377 -0.3831  0.1878
16437SOL     OW50751   0.794   0.590   7.792 -0.4927 -0.3143  0.2630
16437SOL    HW150752   0.769   0.672   7.751  1.1655 -0.4810 -1.2188
16437SOL    HW250753   0.811   0.612   7.883  0.4421  1.1359 -0.2216
16438SOL     OW50754   0.577   5.097   8.483 -0.8415 -0.5321 -0.5838
16438SOL    HW150755   0.488   5.084   8.516 -0.8397  0.1829 -0.2687
16438SOL    HW250756   0.623   5.015   8.503 -0.5870  0.1617  2.0786
16439SOL     OW50757   1.203   4.227   4.354  0.3561  0.1743  0.8808
16439SOL    HW150758   1.226   4.265   4.269 -0.3989  0.1878  0.6737
16439SOL    HW250759   1.233   4.291   4.418  0.4553  0.4139  0.5986
16440SOL     OW50760   1.028   0.723   0.441  0.3158 -0.3592 -0.0421
16440SOL    HW150761   0.961   0.758   0.501  1.2144  0.5273  0.4693
16440SOL    HW250762   1.024   0.628   0.454 -1.1645 -0.3792 -0.3766
16441SOL     OW50763   1.891   5.672   2.221 -0.0245 -0.2186 -0.2606
16441SOL    HW150764   1.933   5.601   2.270 -0.8425  0.0665  0.8724
16441SOL    HW250765   1.798   5.663   2.240 -0.2152  0.7126 -0.7159
16442SOL     OW50766   1.948   4.847   1.715  0.4195 -0.2969  0.0087
16442SOL    HW150767   1.897   4.849   1.634 -1.2287 -0.7786  0.9931
16442SOL    HW250768   1.944   4.936   1.748  0.4479 -0.2751 -0.0455
16443SOL     OW50769   2.898   7.009   4.899  0.5384 -0.2417 -0.0909
16443SOL    HW150770   2.982   7.046   4.871  1.6929 -1.3351  1.7794
16443SOL    HW250771   2.921   6.936   4.956 -1.6975 -0.7039  0.3174
16444SOL     OW50772   5.834   1.631   9.908  0.1621  0.5696 -0.8036
16444SOL    HW150773   5.866   1.721   9.905  0.1899  0.6893  1.5394
16444SOL    HW250774   5.908   1.579   9.940  0.1535 -0.3379 -2.1365
16445SOL     OW50775   2.989   4.521  12.095  0.0858  0.0905  0.5796
16445SOL    HW150776   2.945   4.594  12.138 -1.1764  0.2952 -0.9670
16445SOL    HW250777   2.926   4.449  12.100  1.1547 -0.8242  1.7284
16446SOL     OW50778   6.878   2.510  11.483  0.5162  0.2970 -0.1286
16446SOL    HW150779   6.860   2.551  11.398 -1.5261 -0.0493  0.0942
16446SOL    HW250780   6.822   2.433  11.484  1.2289 -0.2220  1.1668
16447SOL     OW50781   1.692   0.849   2.813 -0.3665  0.5040 -0.0238
16447SOL    HW150782   1.668   0.845   2.906  0.6948 -0.2365  0.2404
16447SOL    HW250783   1.754   0.922   2.807  0.7961 -0.4267  0.1787
16448SOL     OW50784   7.102   5.710   9.194 -0.3405 -0.6379 -0.0685
16448SOL    HW150785   7.037   5.777   9.216 -0.6837 -1.2671  0.9124
16448SOL    HW250786   7.079   5.682   9.105 -0.8183 -0.1735 -0.0938
16449SOL     OW50787   4.900   4.535   0.061 -0.2989  0.1032  0.3305
16449SOL    HW150788   4.855   4.474   0.120  2.0797 -1.5254  0.6021
16449SOL    HW250789   4.869   4.622   0.087 -1.9810 -0.8169  1.5554
16450SOL     OW50790   7.694   1.717  12.053  0.1416  0.0865  0.1277
16450SOL    HW150791   7.609   1.742  12.017 -0.9014 -1.0772  1.6372
16450SOL    HW250792   7.753   1.717  11.978 -0.9038  2.0704 -0.7486
16451SOL     OW50793   5.412   5.164  12.055 -0.2676 -0.1869  0.5640
16451SOL    HW150794   5.454   5.249  12.040  0.0645 -0.4146  0.2076
16451SOL    HW250795   5.484   5.102  12.062 -0.5308 -0.5594  0.0528
16452SOL     OW50796   1.016   2.548   7.609  0.1314  0.2669  0.5199
16452SOL    HW150797   0.987   2.482   7.672  0.7809 -0.3252  0.2127
16452SOL    HW250798   0.938   2.569   7.558  0.1720 -1.2331 -0.2327
16453SOL     OW50799   5.395   6.013   1.115 -0.2837  0.2272  0.2502
16453SOL    HW150800   5.316   5.965   1.090 -0.3323  0.6552 -0.4475
16453SOL    HW250801   5.453   5.947   1.153  0.3470 -0.7481 -2.2620
16454SOL     OW50802   2.953   5.949   0.843  0.1619 -0.3243 -0.1813
16454SOL    HW150803   2.866   5.912   0.856 -0.0378  0.5432  1.1627
16454SOL    HW250804   2.949   5.992   0.758 -0.6592 -0.4749 -0.2249
16455SOL     OW50805   3.627   4.317   4.030  0.2910 -0.3486  0.8531
16455SOL    HW150806   3.634   4.223   4.013  0.7846 -0.2164  0.3253
16455SOL    HW250807   3.599   4.355   3.947  2.7509  0.2978  0.2379
16456SOL     OW50808   2.544   5.449   4.079 -0.0811  0.2133  0.3779
16456SOL    HW150809   2.553   5.358   4.107 -0.9646 -0.5233 -1.5495
16456SOL    HW250810   2.466   5.480   4.124 -0.0463 -0.1187  0.6763
16457SOL     OW50811   5.862   0.796   2.755 -0.4884 -0.1551  0.1203
16457SOL    HW150812   5.877   0.882   2.794  2.0115 -0.5456  0.1481
16457SOL    HW250813   5.946   0.771   2.718 -1.7225 -1.6444 -1.9001
16458SOL     OW50814   3.575   4.940   6.359  0.1923  0.3339 -0.3049
16458SOL    HW150815   3.665   4.909   6.368 -0.6936 -2.2464  0.5396
16458SOL    HW250816   3.558   4.935   6.265  0.9858  1.1006 -0.5032
16459SOL     OW50817   6.876   0.839   6.657 -0.0794 -0.3220  0.2417
16459SOL    HW150818   6.926   0.844   6.575 -0.5798 -1.4170 -0.1430
16459SOL    HW250819   6.861   0.931   6.681  3.1789  0.1222  1.0656
16460SOL     OW50820   3.504   4.501  11.812  0.3567  0.0975 -0.0418
16460SOL    HW150821   3.430   4.467  11.862  0.9023 -1.0473  0.0244
16460SOL    HW250822   3.571   4.433  11.819  1.9755  1.7168  1.1258
16461SOL     OW50823   2.700   4.556   4.622  0.1072 -0.1625 -0.1618
16461SOL    HW150824   2.725   4.629   4.565  0.3932 -0.3463 -0.2717
16461SOL    HW250825   2.748   4.480   4.587 -1.2395 -0.7100 -0.9163
16462SOL     OW50826   6.175   6.982   0.830  0.1218  0.4489 -0.8650
16462SOL    HW150827   6.231   6.940   0.896  0.7767  0.0151 -1.6727
16462SOL    HW250828   6.213   7.070   0.820  0.1372  0.4499 -0.8025
16463SOL     OW50829   0.080   6.372   6.982  0.3486  0.2204 -0.2078
16463SOL    HW150830   0.165   6.332   6.966 -0.2359 -0.7973 -0.9748
16463SOL    HW250831   0.019   6.298   6.981 -0.7193  1.0777 -1.1965
16464SOL     OW50832   2.923   6.025   8.111 -0.0781 -0.3873  0.0002
16464SOL    HW150833   2.997   6.025   8.050 -1.3653 -0.9583 -1.6303
16464SOL    HW250834   2.904   6.118   8.124  0.9012 -0.2343  0.4376
16465SOL     OW50835   0.122   7.470   2.283  0.5682  0.5864 -0.1248
16465SOL    HW150836   0.184   7.539   2.259 -0.4104  1.8128  0.7204
16465SOL    HW250837   0.164   7.425   2.356  0.9163  0.7297 -0.2306
16466SOL     OW50838   3.963   2.694   4.099  0.3488  0.5390  0.5487
16466SOL    HW150839   3.880   2.720   4.139  0.7450  1.0399  1.0716
16466SOL    HW250840   4.028   2.710   4.168  0.9918  1.0063 -0.1550
16467SOL     OW50841   1.551   2.376   3.647  0.1082  1.2448  0.4559
16467SOL    HW150842   1.642   2.365   3.620 -0.1304 -0.8217  0.3251
16467SOL    HW250843   1.544   2.322   3.726 -1.0181  1.2678  0.3768
16468SOL     OW50844   2.882   7.558   4.555 -0.6014  0.1890  0.3165
16468SOL    HW150845   2.897   7.488   4.618 -2.2212  0.3845  0.9851
16468SOL    HW250846   2.888   7.638   4.606  0.7781  0.5320 -0.3492
16469SOL     OW50847   6.467   7.585   7.221 -0.0383  0.3117  0.2313
16469SOL    HW150848   6.431   7.552   7.303  0.2289  1.1356  0.6905
16469SOL    HW250849   6.429   7.529   7.153 -1.2435  0.4130  0.8066
16470SOL     OW50850   1.095   5.943   6.678 -0.3489 -0.1403 -0.3071
16470SOL    HW150851   1.024   5.894   6.637 -0.4007  0.6132 -1.1350
16470SOL    HW250852   1.052   6.016   6.721 -0.2984 -0.9199  1.1449
16471SOL     OW50853   3.802   4.146  11.097  0.4823 -0.3010  0.2699
16471SOL    HW150854   3.726   4.204  11.102 -0.1027 -1.0479  0.3946
16471SOL    HW250855   3.784   4.078  11.162  1.5331 -0.1881  0.6914
16472SOL     OW50856   6.674   3.395  11.565  0.0697  0.0765 -0.2341
16472SOL    HW150857   6.754   3.374  11.614  1.1263 -2.2071 -2.7247
16472SOL    HW250858   6.645   3.312  11.529 -1.1729  1.4578 -2.6502
16473SOL     OW50859   2.763   1.967   4.221  0.0682  0.2849 -0.1188
16473SOL    HW150860   2.766   1.872   4.215 -0.6349  0.2303  0.3023
16473SOL    HW250861   2.786   1.986   4.312  0.8859  0.5625 -0.3735
16474SOL     OW50862   7.255   7.381   7.736  0.3604  0.0915  0.0733
16474SOL    HW150863   7.243   7.414   7.825  0.1046 -0.1410  0.1259
16474SOL    HW250864   7.262   7.461   7.683 -1.4253  0.2817  0.0483
16475SOL     OW50865   2.478   0.857   8.826 -0.1051 -0.0441  0.0147
16475SOL    HW150866   2.429   0.938   8.842 -0.9231 -0.8421  1.9441
16475SOL    HW250867   2.414   0.788   8.842  0.4391 -1.0928 -2.1152
16476SOL     OW50868   2.803   4.535  11.785  0.1079 -0.2368 -0.5548
16476SOL    HW150869   2.747   4.598  11.832  0.4565  0.3392 -0.8975
16476SOL    HW250870   2.837   4.478  11.853  0.1593  0.2427 -0.1676
16477SOL     OW50871   0.779   6.915   1.246  0.0394 -0.0409  0.1973
16477SOL    HW150872   0.783   7.000   1.203  2.3617  0.9358  2.1317
16477SOL    HW250873   0.774   6.852   1.173 -2.1559  1.6767 -1.2589
16478SOL     OW50874   2.416   1.283   0.527 -0.3707 -0.6134  0.3074
16478SOL    HW150875   2.358   1.356   0.511  0.5304  0.2440  0.8448
16478SOL    HW250876   2.393   1.218   0.461 -1.2530  0.1117 -0.1001
16479SOL     OW50877   3.619   2.802  12.123  0.8644 -0.4258 -0.4793
16479SOL    HW150878   3.599   2.788  12.031  1.7515 -1.6884 -0.5108
16479SOL    HW250879   3.555   2.867  12.153  0.0976 -0.5576 -1.7906
16480SOL     OW50880   4.623   7.518   5.684 -0.0830 -0.5797 -0.0319
16480SOL    HW150881   4.653   7.575   5.613 -0.0355 -1.3591 -0.6523
16480SOL    HW250882   4.570   7.576   5.740  1.3505  0.4710  0.2995
16481SOL     OW50883   1.365   2.940   4.755  0.1188 -0.2800  0.5194
16481SOL    HW150884   1.287   2.947   4.700  0.6371  2.3194 -0.0272
16481SOL    HW250885   1.436   2.920   4.694  0.0371 -1.8188  0.9021
16482SOL     OW50886   2.433   4.556   7.644  0.2290  0.3738 -0.2089
16482SOL    HW150887   2.396   4.628   7.696  0.9712  1.8118 -1.5896
16482SOL    HW250888   2.520   4.588   7.618  1.4048 -1.8182  0.6977
16483SOL     OW50889   3.548   3.182   4.808  0.0126 -0.5941  0.6196
16483SOL    HW150890   3.618   3.132   4.765  0.4916  0.0395  0.6523
16483SOL    HW250891   3.518   3.125   4.879  1.1685 -0.4562  1.2217
16484SOL     OW50892   0.428   0.369   5.862 -0.1922 -0.1436  0.2189
16484SOL    HW150893   0.488   0.436   5.896 -0.7009  0.6365 -0.3625
16484SOL    HW250894   0.386   0.333   5.940 -0.4260  0.7240  0.5162
16485SOL     OW50895   1.756   4.729   1.975  0.0313 -0.2023  0.1290
16485SOL    HW150896   1.789   4.654   2.024 -1.0017 -0.8935 -0.2205
16485SOL    HW250897   1.697   4.774   2.035  0.0001 -0.1398  0.0528
16486SOL     OW50898   1.100   7.576   9.373 -0.2061 -0.2812  0.0788
16486SOL    HW150899   1.111   7.503   9.434  3.4630 -1.4283 -1.6306
16486SOL    HW250900   1.087   7.535   9.287  0.5218  1.0854 -0.7299
16487SOL     OW50901   6.032   5.830   4.269  0.5046  0.6449  0.0981
16487SOL    HW150902   6.019   5.851   4.177 -0.8447 -2.3915 -0.5186
16487SOL    HW250903   5.946   5.845   4.310  0.9559  1.4672  0.7880
16488SOL     OW50904   3.775   5.429   4.080  0.3861 -0.1760 -0.2898
16488SOL    HW150905   3.824   5.444   3.999  0.1010  0.0779 -0.4212
16488SOL    HW250906   3.720   5.507   4.089  0.2146 -0.3289  0.0028
16489SOL     OW50907   2.067   5.021   9.770 -0.1325  0.4827  0.1768
16489SOL    HW150908   1.981   4.984   9.792 -0.4214  0.3177 -1.1567
16489SOL    HW250909   2.076   5.097   9.827 -0.3934 -0.4918  1.5669
16490SOL     OW50910   5.792   2.854   2.135  0.0108  0.1968  0.5738
16490SOL    HW150911   5.840   2.789   2.083 -1.9826 -1.6127  0.8578
16490SOL    HW250912   5.843   2.934   2.126  0.9271 -0.5842 -2.3920
16491SOL     OW50913   6.896   1.106   0.412 -0.2564 -0.3806  0.2592
16491SOL    HW150914   6.950   1.168   0.363  0.5488 -1.0929  0.2059
16491SOL    HW250915   6.950   1.079   0.486  0.0892 -2.2083 -0.5814
16492SOL     OW50916   1.425   3.637   3.543  0.5123 -0.3166  0.1008
16492SOL    HW150917   1.448   3.545   3.560  1.1669  0.1641  2.0372
16492SOL    HW250918   1.458   3.685   3.619 -0.0442  1.5092 -0.7487
16493SOL     OW50919   5.058   7.696   8.147 -0.1019 -0.3066 -0.2792
16493SOL    HW150920   5.020   7.751   8.078 -0.3546  0.0503  0.1369
16493SOL    HW250921   5.137   7.743   8.174 -1.3559  0.9291  1.4642
16494SOL     OW50922   2.228   4.300   2.352  0.3865 -0.3188  0.2205
16494SOL    HW150923   2.161   4.277   2.287 -1.7267  0.0738  2.1300
16494SOL    HW250924   2.289   4.226   2.351 -0.0562 -0.6980 -1.5833
16495SOL     OW50925   3.528   1.074   9.150 -0.1881  0.3445  0.2095
16495SOL    HW150926   3.492   1.051   9.236 -1.7242  1.2063 -0.1621
16495SOL    HW250927   3.471   1.144   9.118 -0.8042 -1.1569 -2.2788
16496SOL     OW50928   4.275   7.945   0.483 -0.2700  0.1596 -0.2924
16496SOL    HW150929   4.262   8.006   0.556 -0.5252  0.0994 -0.2873
16496SOL    HW250930   4.354   7.896   0.507 -0.8480 -0.4709  0.3771
16497SOL     OW50931   5.396   6.419  12.115  0.0510 -0.0349 -0.1712
16497SOL    HW150932   5.381   6.358  12.043 -0.3379 -1.5249  1.1126
16497SOL    HW250933   5.320   6.476  12.116 -0.1293 -0.2652 -0.6857
16498SOL     OW50934   5.395   1.003   9.070 -0.0584  0.3330 -0.2765
16498SOL    HW150935   5.475   1.003   9.017 -0.1761 -1.6746 -0.5294
16498SOL    HW250936   5.334   1.060   9.023 -0.0879 -1.2259 -2.2469
16499SOL     OW50937   5.298   1.885   5.868 -0.2531 -0.5248  1.2025
16499SOL    HW150938   5.355   1.836   5.927  3.3816  2.5596  0.5927
16499SOL    HW250939   5.320   1.852   5.780 -0.3321 -0.1871  1.0529
16500SOL     OW50940   7.139   2.294  12.327 -0.7088  0.1388 -0.0744
16500SOL    HW150941   7.126   2.352  12.402 -0.5466  1.8372 -1.3032
16500SOL    HW250942   7.211   2.236  12.354  0.1973  1.5407  0.6479
16501SOL     OW50943   2.389   1.527   5.622  0.0373  0.4213 -0.6010
16501SOL    HW150944   2.410   1.593   5.557 -0.0135  0.1731 -0.8710
16501SOL    HW250945   2.423   1.445   5.585  3.4589  0.7958  1.3292
16502SOL     OW50946   1.510   3.820  10.253  0.1964 -0.2318  0.2034
16502SOL    HW150947   1.591   3.770  10.253  0.5220  0.2751 -0.3182
16502SOL    HW250948   1.458   3.782  10.182 -0.3290 -1.0216  0.9965
16503SOL     OW50949   1.392   0.182   6.128  1.0536  0.2257  0.3205
16503SOL    HW150950   1.444   0.256   6.161 -0.0765  2.3292 -2.2359
16503SOL    HW250951   1.371   0.206   6.038 -0.2765 -2.8046 -0.2970
16504SOL     OW50952   4.292   3.996   0.637 -0.0337  0.2211  0.0114
16504SOL    HW150953   4.349   4.071   0.654  1.6710 -0.6955 -1.3079
16504SOL    HW250954   4.315   3.934   0.707  4.0721 -1.9420 -2.8012
16505SOL     OW50955   3.561   1.666  10.599  0.1482  0.6684  0.4747
16505SOL    HW150956   3.639   1.720  10.592 -0.4427  1.5101  0.1584
16505SOL    HW250957   3.561   1.613  10.519 -0.1559  1.4321 -0.0377
16506SOL     OW50958   5.449   6.172   0.186 -0.1052 -0.1851  0.0197
16506SOL    HW150959   5.512   6.235   0.221  0.1410 -0.9829  1.0703
16506SOL    HW250960   5.416   6.126   0.263 -0.0413 -1.5620 -0.7407
16507SOL     OW50961   0.821   5.788   0.224  0.1824  0.2008 -0.6338
16507SOL    HW150962   0.831   5.879   0.255  1.5125  0.7327 -2.4783
16507SOL    HW250963   0.907   5.765   0.189  0.9070 -2.9460  2.5630
16508SOL     OW50964   7.893   7.672  10.093  0.0916 -0.0509  0.3852
16508SOL    HW150965   7.833   7.663  10.020  0.1599 -0.2150  0.3465
16508SOL    HW250966   7.976   7.637  10.060  0.4391  0.9740  0.1592
16509SOL     OW50967   1.107   1.090  10.355 -0.0999  0.1248 -0.0078
16509SOL    HW150968   1.064   1.107  10.438 -1.1903 -1.0018 -0.3115
16509SOL    HW250969   1.194   1.058  10.379 -0.4778 -0.3774  0.6981
16510SOL     OW50970   6.880   6.056   3.436  0.0352 -0.2021  0.3807
16510SOL    HW150971   6.831   6.066   3.518  0.7864  0.7849  0.7302
16510SOL    HW250972   6.971   6.071   3.461  0.3555 -0.6210 -0.5112
16511SOL     OW50973   0.882   0.841   2.036  0.2888  0.0326  0.0543
16511SOL    HW150974   0.910   0.774   1.974  1.8986 -2.2092  2.9376
16511SOL    HW250975   0.788   0.851   2.021  0.3926 -1.3126 -1.8524
16512SOL     OW50976   2.831   2.279   3.908 -0.2904 -0.7081  0.2073
16512SOL    HW150977   2.884   2.199   3.916  1.4887  0.2989 -0.8395
16512SOL    HW250978   2.844   2.324   3.991  1.3043 -0.0401 -0.3679
16513SOL     OW50979   6.336   3.685   0.210 -0.0333 -0.4934 -0.2715
16513SOL    HW150980   6.427   3.716   0.205  0.6857 -2.5852 -1.6971
16513SOL    HW250981   6.318   3.650   0.123 -2.3104  0.0055 -0.0608
16514SOL     OW50982   0.344   1.948  11.846  0.5782  0.5058 -0.5056
16514SOL    HW150983   0.337   2.040  11.822 -1.3033  0.6666  0.5228
16514SOL    HW250984   0.274   1.904  11.799  1.3981 -0.4131 -0.9226
16515SOL     OW50985   3.612   7.815  12.109  0.2279  0.3478 -0.4715
16515SOL    HW150986   3.681   7.751  12.093  0.9822  1.6561 -3.0180
16515SOL    HW250987   3.534   7.777  12.069 -0.1255 -0.3247  0.8070
16516SOL     OW50988   6.129   5.449   3.701  0.6188 -0.1448  0.5137
16516SOL    HW150989   6.219   5.420   3.710  0.3692 -0.2797  3.4055
16516SOL    HW250990   6.083   5.373   3.665  1.2213 -1.0236  1.5369
16517SOL     OW50991   0.814   1.797   5.229 -0.5308  0.9929 -0.2978
16517SOL    HW150992   0.776   1.875   5.188  0.0309  2.3160  1.5194
16517SOL    HW250993   0.852   1.747   5.157 -1.3808  2.1165 -1.5805
16518SOL     OW50994   3.653   2.950   3.499  0.2781  0.1103 -0.5030
16518SOL    HW150995   3.746   2.958   3.520  0.2087  1.0661 -0.5195
16518SOL    HW250996   3.620   2.887   3.562  1.0901 -0.8371 -0.9964
16519SOL     OW50997   2.853   3.772   0.123  0.3116  0.2743  0.3536
16519SOL    HW150998   2.817   3.861   0.127 -1.8244 -0.5862  2.2468
16519SOL    HW250999   2.827   3.732   0.206  0.1790 -2.5065 -0.9296
16520SOL     OW51000   0.206   3.093   9.954 -0.3417 -0.3340 -0.0229
16520SOL    HW151001   0.283   3.148   9.970  0.1766 -0.9065 -0.4687
16520SOL    HW251002   0.198   3.039  10.033 -0.8287  0.3490  0.3985
16521SOL     OW51003   5.833   3.546   9.644 -0.6983  0.1970 -0.2296
16521SOL    HW151004   5.891   3.590   9.582 -1.6448  1.9045  0.0547
16521SOL    HW251005   5.882   3.467   9.670  0.4920  0.3902 -1.7252
16522SOL     OW51006   3.765   6.070   5.367 -0.2874 -0.3769 -0.3887
16522SOL    HW151007   3.753   5.978   5.391  0.0306 -0.4609 -0.5555
16522SOL    HW251008   3.677   6.108   5.374 -0.4395 -0.7177 -0.4289
16523SOL     OW51009   7.689   4.490   5.636  0.4439 -0.2898  0.0811
16523SOL    HW151010   7.713   4.582   5.627 -0.6444  0.3881  3.0662
16523SOL    HW251011   7.594   4.489   5.635  0.3936 -1.7660 -2.2359
16524SOL     OW51012   4.899   3.278  10.568 -0.0237 -0.0923  0.0698
16524SOL    HW151013   4.972   3.266  10.629  0.2589  0.1003 -0.2276
16524SOL    HW251014   4.909   3.368  10.536 -0.5969  0.0504  0.2952
16525SOL     OW51015   0.141   0.577   5.896  0.6521 -0.3601 -0.3239
16525SOL    HW151016   0.097   0.509   5.947 -2.0397  0.7959 -0.8877
16525SOL    HW251017   0.218   0.600   5.948 -0.1173 -1.5980  1.4829
16526SOL     OW51018   2.070   3.174   5.300  0.4576 -0.2039  0.6346
16526SOL    HW151019   2.075   3.217   5.215 -0.6949 -1.0247  0.1107
16526SOL    HW251020   2.101   3.085   5.283  1.8174  0.0991  1.4595
16527SOL     OW51021   7.248   7.436   9.886 -0.0145  0.4285  0.3310
16527SOL    HW151022   7.152   7.439   9.889  0.0122  0.7330  1.2293
16527SOL    HW251023   7.272   7.507   9.827 -0.3797 -0.6571 -1.1861
16528SOL     OW51024   5.369   4.325   7.741 -0.3854 -0.2299  0.0616
16528SOL    HW151025   5.351   4.347   7.832  0.3821  1.7733 -0.2191
16528SOL    HW251026   5.449   4.272   7.744 -1.1768 -1.4470  0.6152
16529SOL     OW51027   3.141   4.437   0.955 -0.0084  0.7239  0.1280
16529SOL    HW151028   3.218   4.491   0.973 -0.9840  1.8205  1.1370
16529SOL    HW251029   3.124   4.449   0.862  0.4229  1.2826  0.1169
16530SOL     OW51030   3.899   6.893   0.292 -1.1809 -0.0106  0.3771
16530SOL    HW151031   3.984   6.909   0.252 -0.9964 -0.2398  0.6687
16530SOL    HW251032   3.841   6.958   0.253 -0.9702 -0.1283 -0.1445
16531SOL     OW51033   2.082   3.462  10.498 -0.2242 -0.0225  0.4630
16531SOL    HW151034   2.027   3.540  10.493 -2.1576 -1.3429 -0.6126
16531SOL    HW251035   2.043   3.401  10.435  1.8611 -1.4709  0.4647
16532SOL     OW51036   3.417   0.250   5.999 -0.0912  0.2332 -0.2817
16532SOL    HW151037   3.430   0.335   5.958  0.8300  0.8637  1.2180
16532SOL    HW251038   3.334   0.218   5.963 -0.1716  1.5137 -1.2781
16533SOL     OW51039   7.869   3.618   7.618  0.5763  0.0846  0.1344
16533SOL    HW151040   7.820   3.658   7.690 -2.0603 -1.1418 -0.8612
16533SOL    HW251041   7.928   3.556   7.661 -1.5884 -1.3013  1.3060
16534SOL     OW51042   6.628   7.038   4.030 -0.2655 -0.3086  0.3621
16534SOL    HW151043   6.592   7.126   4.026  0.0337 -0.1899  0.2194
16534SOL    HW251044   6.704   7.046   4.089 -0.3670 -0.5159  0.5224
16535SOL     OW51045   2.382   5.959   7.868  0.8230 -0.4472 -0.5674
16535SOL    HW151046   2.475   5.974   7.882  0.6124 -0.9420  1.8553
16535SOL    HW251047   2.339   6.035   7.908  0.1666 -0.9445 -0.2903
16536SOL     OW51048   1.948   1.289  12.249  0.0378  0.3325  0.0729
16536SOL    HW151049   2.028   1.328  12.215  0.5507 -0.0052  0.8624
16536SOL    HW251050   1.967   1.195  12.255 -0.9221  0.0352 -1.0879
16537SOL     OW51051   1.521   2.567   0.477 -0.2564  0.1708 -0.1940
16537SOL    HW151052   1.487   2.477   0.477  2.8405 -1.1120  0.2031
16537SOL    HW251053   1.580   2.570   0.552  0.2765  2.3269 -0.6359
16538SOL     OW51054   5.051   3.384  12.207  0.6870 -0.0414 -0.3293
16538SOL    HW151055   5.104   3.462  12.188  0.9319 -0.4859 -1.5657
16538SOL    HW251056   5.035   3.345  12.121 -1.1324 -0.2773  0.0766
16539SOL     OW51057   4.430   2.698   9.707  0.0804  0.0578  0.2406
16539SOL    HW151058   4.403   2.607   9.696 -1.2587  0.4966 -0.2861
16539SOL    HW251059   4.498   2.711   9.641 -1.9327  0.2805 -1.9087
16540SOL     OW51060   1.045   6.424   9.393  0.3619 -0.5812 -0.6342
16540SOL    HW151061   1.135   6.398   9.376  0.2599 -1.4610  0.0970
16540SOL    HW251062   0.996   6.341   9.392 -0.0593 -0.3906  1.2522
16541SOL     OW51063   4.495   2.122   3.009  0.0446  0.4978  0.7486
16541SOL    HW151064   4.427   2.066   3.046  0.2811  0.4962  1.1944
16541SOL    HW251065   4.461   2.211   3.020 -1.2466  0.4078 -1.7841
16542SOL     OW51066   5.762   2.253   6.340  0.0700  0.5866  0.0650
16542SOL    HW151067   5.773   2.274   6.248 -0.4958 -2.8435 -0.9218
16542SOL    HW251068   5.851   2.233   6.371 -0.0209 -1.0119 -0.5899
16543SOL     OW51069   1.679   0.241   3.849  0.3423 -0.3075 -0.4598
16543SOL    HW151070   1.759   0.215   3.893 -1.5091 -0.9426  2.9336
16543SOL    HW251071   1.648   0.162   3.806  1.4968 -0.0463 -1.8265
16544SOL     OW51072   3.929   1.216  12.241 -0.5647  0.2522  0.3963
16544SOL    HW151073   3.986   1.233  12.166 -1.1088  2.6318  0.4216
16544SOL    HW251074   3.988   1.216  12.316 -0.0993 -1.5383  0.0738
16545SOL     OW51075   0.087   1.170   6.157  0.2797  0.1744  0.1969
16545SOL    HW151076   0.095   1.259   6.122 -2.5479  0.1415 -0.7464
16545SOL    HW251077   0.019   1.129   6.103 -0.5099 -1.6297  2.4315
16546SOL     OW51078   3.856   4.915   1.199  0.0370 -0.0433 -0.1249
16546SOL    HW151079   3.938   4.944   1.238 -0.8851  1.5635  0.7492
16546SOL    HW251080   3.840   4.976   1.127 -0.8799  0.3684  0.3937
16547SOL     OW51081   4.514   1.504   6.608 -0.1452  0.3296 -0.1998
16547SOL    HW151082   4.544   1.445   6.539 -0.5925 -0.3388  0.1728
16547SOL    HW251083   4.569   1.582   6.597  1.4253 -0.6829  0.1667
16548SOL     OW51084   7.895   5.464   6.813  0.3052 -1.2122  0.1635
16548SOL    HW151085   7.828   5.452   6.747 -0.1140 -1.4229  0.6274
16548SOL    HW251086   7.960   5.521   6.771 -0.5031 -0.4329 -0.0409
16549SOL     OW51087   5.856   7.355   1.796  0.4306  0.2194 -0.1137
16549SOL    HW151088   5.894   7.419   1.855 -1.0372  0.9206  0.1292
16549SOL    HW251089   5.767   7.388   1.779 -0.2168 -1.5188 -0.3194
16550SOL     OW51090   5.267   7.658  11.418  0.2240 -0.2558  0.0642
16550SOL    HW151091   5.304   7.642  11.505 -0.4072 -0.5345  0.2885
16550SOL    HW251092   5.200   7.590  11.407 -0.3201  0.3158 -0.2713
16551SOL     OW51093   5.473   3.791   1.737  0.2152 -0.2545 -0.4806
16551SOL    HW151094   5.492   3.865   1.795 -0.6940 -1.7008  1.8044
16551SOL    HW251095   5.423   3.830   1.665 -0.5318  1.3344  0.8253
16552SOL     OW51096   7.722   0.114   9.140  1.1349 -0.6186  0.2044
16552SOL    HW151097   7.712   0.197   9.093 -0.8016  0.0750  1.6840
16552SOL    HW251098   7.768   0.138   9.221 -0.2326 -0.7629  1.0626
16553SOL     OW51099   5.893   6.463   5.891 -0.5675 -0.2087 -0.4578
16553SOL    HW151100   5.968   6.519   5.869 -1.3455  1.6435  1.2935
16553SOL    HW251101   5.863   6.429   5.807  2.2657 -1.1005 -1.2073
16554SOL     OW51102   7.190   3.866   3.365  0.0849  0.3436  0.0842
16554SOL    HW151103   7.175   3.903   3.278  1.3149  0.8602  0.0693
16554SOL    HW251104   7.270   3.909   3.396  1.2725 -1.8833  0.3032
16555SOL     OW51105   7.026   1.119   3.886  0.2408 -0.3908  0.2426
16555SOL    HW151106   6.965   1.071   3.830 -0.0526  0.7420 -0.4304
16555SOL    HW251107   7.110   1.075   3.873  0.2001 -0.0785 -1.1874
16556SOL     OW51108   0.434   4.696   2.704  0.3767  0.1018 -0.1219
16556SOL    HW151109   0.488   4.694   2.624 -1.2897  3.5415 -1.5529
16556SOL    HW251110   0.370   4.765   2.687 -1.8839 -0.9850  3.1431
16557SOL     OW51111   1.184   5.478   3.151  0.0107 -0.1202 -0.2806
16557SOL    HW151112   1.171   5.483   3.056 -0.6625 -0.1749 -0.1938
16557SOL    HW251113   1.206   5.386   3.167  0.5689 -0.0167 -0.4334
16558SOL     OW51114   0.030   1.302   6.785 -0.4058 -0.1542 -0.1339
16558SOL    HW151115  -0.036   1.254   6.734 -1.6816  1.4046 -0.0378
16558SOL    HW251116   0.113   1.258   6.764 -1.0470 -0.3795 -2.5681
16559SOL     OW51117   5.453   2.102   5.815 -0.0655  0.3808  0.2699
16559SOL    HW151118   5.375   2.052   5.837 -0.5387  0.4626 -1.1295
16559SOL    HW251119   5.522   2.037   5.805  0.2940  0.3646  2.2867
16560SOL     OW51120   7.821   7.782   0.461 -0.3181  0.3463  0.6355
16560SOL    HW151121   7.736   7.749   0.433  0.6968 -2.6098  0.6628
16560SOL    HW251122   7.863   7.811   0.380 -0.4351 -0.5935  0.2204
16561SOL     OW51123   6.722   7.632   9.231 -0.3343  0.1467  0.4387
16561SOL    HW151124   6.684   7.705   9.281 -1.3465  0.5186 -0.8171
16561SOL    HW251125   6.812   7.625   9.263 -0.0318  2.3201  0.2049
16562SOL     OW51126   7.360   0.054   2.654  0.1904  0.1299 -0.1421
16562SOL    HW151127   7.449   0.074   2.626  0.1178  1.2964  0.3840
16562SOL    HW251128   7.306   0.119   2.610 -0.2564  0.1375  0.4061
16563SOL     OW51129   1.896   7.945   8.312 -0.2674  0.0813  0.1054
16563SOL    HW151130   1.950   8.018   8.342  0.7372 -0.1120 -1.1167
16563SOL    HW251131   1.949   7.903   8.244 -1.7857 -0.3894 -0.8366
16564SOL     OW51132   3.213   3.561   1.715 -0.0372 -0.0258  0.0363
16564SOL    HW151133   3.139   3.506   1.739  0.3226  0.0818  1.4868
16564SOL    HW251134   3.250   3.520   1.637  0.2963 -1.9180  1.1378
16565SOL     OW51135   6.776   7.465  11.375 -0.0897 -0.4008  0.5190
16565SOL    HW151136   6.824   7.477  11.293 -1.7466 -1.2199 -0.6187
16565SOL    HW251137   6.803   7.538  11.430  2.7763 -1.0668  0.1302
16566SOL     OW51138   7.909   0.511   9.825 -0.1519  0.1091  1.0718
16566SOL    HW151139   7.900   0.503   9.730  0.9957 -1.6521  1.0745
16566SOL    HW251140   7.969   0.585   9.837 -1.4324  1.2957  0.5305
16567SOL     OW51141   0.643   2.406   7.400 -0.1508  0.5958 -0.0491
16567SOL    HW151142   0.597   2.454   7.332 -2.5624 -1.6304 -0.1623
16567SOL    HW251143   0.573   2.367   7.453  1.6130 -1.4542  0.9232
16568SOL     OW51144   1.909   7.096   0.838 -0.0676 -0.2505  0.3788
16568SOL    HW151145   1.940   7.043   0.911 -2.3095 -1.2371  0.6873
16568SOL    HW251146   1.838   7.045   0.799 -1.8766  2.1754  0.2327
16569SOL     OW51147   0.021   3.930   1.173  0.1428  0.9475  0.0847
16569SOL    HW151148  -0.011   3.976   1.251 -2.1280  0.0740 -0.2556
16569SOL    HW251149   0.092   3.874   1.206 -1.3942 -0.1323  1.7773
16570SOL     OW51150   6.319   2.923   9.253 -0.0203 -0.1626 -0.1604
16570SOL    HW151151   6.323   2.833   9.284  0.3070 -0.0672  0.0813
16570SOL    HW251152   6.251   2.923   9.186 -1.2046 -0.2487  0.9931
16571SOL     OW51153   6.125   3.384  12.196  0.1531  0.1048  0.0136
16571SOL    HW151154   6.220   3.391  12.185  0.4601  0.2867  2.3152
16571SOL    HW251155   6.089   3.441  12.128  1.8125  2.3213  0.8665
16572SOL     OW51156   7.710   4.915   5.050 -0.5910  0.2576  0.2450
16572SOL    HW151157   7.685   4.892   4.960 -1.3065  0.4503  0.3855
16572SOL    HW251158   7.799   4.881   5.060 -0.5473  0.1369 -0.5001
16573SOL     OW51159   4.260   5.672   4.546 -0.2295  0.0398 -0.3857
16573SOL    HW151160   4.330   5.648   4.485  0.3728 -1.8659  0.9731
16573SOL    HW251161   4.271   5.612   4.619 -1.5039  1.6434  1.1903
16574SOL     OW51162   2.041   0.873  11.685  0.4874 -0.5806  0.3343
16574SOL    HW151163   2.037   0.909  11.597  0.3813 -0.8700  0.2210
16574SOL    HW251164   2.083   0.942  11.737 -1.7820  0.6844  0.6139
16575SOL     OW51165   0.874   2.883   0.179 -0.0844  1.0957 -0.3451
16575SOL    HW151166   0.910   2.826   0.246  0.2963  1.0014 -0.6220
16575SOL    HW251167   0.945   2.945   0.160 -0.3769  1.4532 -0.2820
16576SOL     OW51168   6.590   4.841   5.516 -0.0938  0.5167  0.4632
16576SOL    HW151169   6.527   4.912   5.533 -0.8900 -0.0911  0.1336
16576SOL    HW251170   6.637   4.870   5.438 -1.8314 -0.1982 -0.9249
16577SOL     OW51171   0.572   2.395   3.651  0.3796  0.3349  0.0471
16577SOL    HW151172   0.479   2.403   3.633  0.5480  0.0935 -1.0031
16577SOL    HW251173   0.585   2.303   3.675  0.4111  0.2613 -0.2454
16578SOL     OW51174   7.370   1.975  10.247 -1.0029  0.4984 -0.1302
16578SOL    HW151175   7.419   1.894  10.234 -3.2917 -0.5689 -4.2156
16578SOL    HW251176   7.410   2.037  10.186 -1.7946  1.0594 -0.1001
16579SOL     OW51177   3.869   7.748   6.251 -0.1715  0.0765  0.2977
16579SOL    HW151178   3.837   7.795   6.174  1.1122  0.1700 -0.2070
16579SOL    HW251179   3.824   7.664   6.249  0.7313 -0.4148 -1.2652
16580SOL     OW51180   1.879   4.109   4.711 -0.2393  0.6495  1.1157
16580SOL    HW151181   1.888   4.105   4.807  0.0500 -0.4667  1.0647
16580SOL    HW251182   1.787   4.091   4.695 -0.2920  0.8549  1.1829
16581SOL     OW51183   0.767   1.112   8.269 -0.3196  0.2573 -0.5977
16581SOL    HW151184   0.704   1.093   8.339 -2.1236 -0.1716 -2.2476
16581SOL    HW251185   0.845   1.062   8.293  0.2830  2.4103  2.5990
16582SOL     OW51186   4.842   3.678   4.159 -0.1158  0.2803 -0.1530
16582SOL    HW151187   4.810   3.733   4.088 -2.2312  0.5801  0.9485
16582SOL    HW251188   4.839   3.734   4.237 -0.2374 -0.7495  0.6095
16583SOL     OW51189   1.576   1.976   4.990  0.2210 -0.9358 -0.6502
16583SOL    HW151190   1.508   2.004   5.051 -0.1171 -3.1673  0.0793
16583SOL    HW251191   1.577   2.045   4.923 -0.8154  0.5418  0.7726
16584SOL     OW51192   4.961   5.478   6.025 -0.7436  0.2284  0.2894
16584SOL    HW151193   5.046   5.436   6.042  0.0464  1.9152  0.6792
16584SOL    HW251194   4.970   5.565   6.063 -2.4751  0.6316 -0.1719
16585SOL     OW51195   4.490   2.466   8.458 -0.4424 -0.7823 -0.4453
16585SOL    HW151196   4.523   2.419   8.534  0.4293  0.3344 -0.1027
16585SOL    HW251197   4.532   2.423   8.383  0.8984 -0.1405 -0.0916
16586SOL     OW51198   2.573   3.627   5.698 -0.4271  0.3598  0.2529
16586SOL    HW151199   2.634   3.584   5.638 -0.9774  0.3485 -0.3127
16586SOL    HW251200   2.585   3.720   5.681  0.3850  0.4196  1.0989
16587SOL     OW51201   0.748   6.377   2.882  0.2737  0.0094 -0.2365
16587SOL    HW151202   0.784   6.458   2.918  2.4672 -1.2570  0.5897
16587SOL    HW251203   0.710   6.333   2.958 -0.6150  0.0857 -0.6236
16588SOL     OW51204   3.744   5.780  10.155  0.4068 -0.1456 -0.2970
16588SOL    HW151205   3.782   5.865  10.132  1.0713 -0.2742  0.2939
16588SOL    HW251206   3.801   5.746  10.224  0.0209 -0.9788 -0.3760
16589SOL     OW51207   3.961   0.068   7.041 -0.3602 -0.2659 -0.1554
16589SOL    HW151208   3.992  -0.022   7.052 -2.5373 -1.0184  0.3423
16589SOL    HW251209   4.028   0.111   6.988  0.5397 -2.2848 -0.7255
16590SOL     OW51210   2.012   3.399   2.830 -0.6238  0.0230  0.0552
16590SOL    HW151211   2.006   3.323   2.772 -0.7306 -0.6678  0.9531
16590SOL    HW251212   1.936   3.391   2.888 -0.0663  0.2218  0.8393
16591SOL     OW51213   2.443   1.736  10.849  0.7496  0.1021 -0.2772
16591SOL    HW151214   2.382   1.775  10.911 -0.4208 -1.0644 -0.6370
16591SOL    HW251215   2.405   1.756  10.763  2.7271  2.3209 -0.7159
16592SOL     OW51216   7.175   5.788   8.513  0.2288  0.2915 -0.0775
16592SOL    HW151217   7.248   5.784   8.452 -0.3003 -0.3969 -0.6884
16592SOL    HW251218   7.141   5.698   8.517 -0.8743  0.6792 -0.1841
16593SOL     OW51219   6.696   2.033   1.455 -0.6684 -0.2866 -0.3152
16593SOL    HW151220   6.756   2.104   1.478  0.7336 -1.6847  0.5065
16593SOL    HW251221   6.619   2.048   1.510 -0.3899  0.5744 -0.1427
16594SOL     OW51222   0.452   0.135   2.911 -0.1451  0.3149  0.1122
16594SOL    HW151223   0.509   0.072   2.955  2.8404  1.7067 -1.4709
16594SOL    HW251224   0.442   0.206   2.973  1.5554  0.9144 -0.2283
16595SOL     OW51225   0.417   3.031   5.245  0.0904 -0.1715 -0.1722
16595SOL    HW151226   0.470   2.974   5.299  0.0160  1.1209  1.3429
16595SOL    HW251227   0.367   2.972   5.189  1.3266 -1.4881  0.0680
16596SOL     OW51228   5.911   3.664   4.956  0.6477 -0.4939  0.0277
16596SOL    HW151229   5.817   3.665   4.973  0.8415 -2.2752  1.4831
16596SOL    HW251230   5.920   3.619   4.873  0.0778  2.7803 -1.9938
16597SOL     OW51231   6.501   3.194   7.493  0.1360 -0.0544  0.1353
16597SOL    HW151232   6.480   3.287   7.501  0.2578  0.0078 -0.2901
16597SOL    HW251233   6.467   3.168   7.407  0.5809 -0.2760  0.0220
16598SOL     OW51234   7.464   6.028  12.121 -0.1202  0.2275 -0.4491
16598SOL    HW151235   7.480   6.107  12.172  0.8862  0.3094 -0.8737
16598SOL    HW251236   7.504   5.958  12.173  3.1522  0.6134 -2.1771
16599SOL     OW51237   0.428   0.634   8.266  0.0123  0.2379  0.0806
16599SOL    HW151238   0.369   0.705   8.240 -0.5212 -0.1319  0.2559
16599SOL    HW251239   0.371   0.557   8.272  0.3655  0.0488  1.0888
16600SOL     OW51240   7.935   4.642   1.958  0.3846  0.1934  0.3378
16600SOL    HW151241   7.919   4.703   2.030 -0.1029 -0.4820  0.8149
16600SOL    HW251242   7.853   4.594   1.949  0.8155 -0.5092  0.0883
16601SOL     OW51243   4.398   2.490  10.461  0.1970 -0.0586 -0.3223
16601SOL    HW151244   4.399   2.402  10.423 -1.2945  0.1524 -0.9635
16601SOL    HW251245   4.483   2.500  10.502  0.4248 -1.7754 -0.2954
16602SOL     OW51246   5.800   3.058   4.134  0.1865 -0.0986  0.0614
16602SOL    HW151247   5.731   2.994   4.151  1.4814 -1.4237  0.4615
16602SOL    HW251248   5.775   3.098   4.050 -0.3832 -1.5038 -0.4684
16603SOL     OW51249   7.780   2.615   9.474  0.0421  0.5386  0.1006
16603SOL    HW151250   7.815   2.590   9.560 -0.2947  0.6162  0.2657
16603SOL    HW251251   7.777   2.711   9.477 -0.2219  0.5307  0.1074
16604SOL     OW51252   4.554   1.843   6.827  0.0938 -0.0197  0.5001
16604SOL    HW151253   4.616   1.893   6.880  0.2440 -0.9550  1.2356
16604SOL    HW251254   4.608   1.790   6.769 -0.0734  1.3486 -0.9653
16605SOL     OW51255   0.877   7.771   1.994  0.6817 -0.1923 -0.6459
16605SOL    HW151256   0.934   7.712   1.945  1.3300  1.4195 -1.9634
16605SOL    HW251257   0.931   7.803   2.066  1.2288  0.7346 -1.4403
16606SOL     OW51258   7.302   3.269   3.186 -0.3482 -0.1558 -0.0730
16606SOL    HW151259   7.322   3.316   3.105 -1.3757 -1.1698 -0.9525
16606SOL    HW251260   7.228   3.317   3.224 -1.2591 -0.8967 -0.8611
16607SOL     OW51261   2.584   0.440   5.535  0.5073 -0.1729 -0.2391
16607SOL    HW151262   2.494   0.458   5.563 -0.1077 -1.5971 -1.1645
16607SOL    HW251263   2.596   0.346   5.551  0.5130 -0.8539 -3.4357
16608SOL     OW51264   3.935   2.343   9.810 -0.0441  0.4532 -0.3740
16608SOL    HW151265   3.842   2.344   9.833  0.1347  3.1039  0.6048
16608SOL    HW251266   3.949   2.426   9.764  2.4026  1.5638  2.1275
16609SOL     OW51267   5.211   2.509   5.519  0.0537 -0.2691 -0.1492
16609SOL    HW151268   5.132   2.545   5.479  1.2677  0.8365 -1.6987
16609SOL    HW251269   5.256   2.585   5.557  1.3526 -0.5101 -1.1142
16610SOL     OW51270   1.923   6.235  10.621  0.0073  0.6314 -0.1869
16610SOL    HW151271   1.977   6.164  10.655 -1.1043 -0.1624 -0.0583
16610SOL    HW251272   1.962   6.315  10.658 -0.1089 -0.0660  1.5083
16611SOL     OW51273   7.940   2.239   5.051  0.5676 -0.6261  0.2594
16611SOL    HW151274   7.871   2.185   5.013  0.9526 -1.6378  0.9570
16611SOL    HW251275   8.021   2.206   5.011  0.9360 -1.4320  1.5928
16612SOL     OW51276   7.644   3.470   2.909  0.5550  0.4598 -0.1665
16612SOL    HW151277   7.615   3.467   2.818 -1.0337  0.3425  0.3210
16612SOL    HW251278   7.655   3.378   2.933 -1.0741  0.3688  0.3556
16613SOL     OW51279   5.340   5.117   5.450  0.1208 -0.6149 -0.1532
16613SOL    HW151280   5.259   5.088   5.409  0.9916 -1.9879 -0.9886
16613SOL    HW251281   5.326   5.105   5.543 -0.7313 -0.5403 -0.2636
16614SOL     OW51282   4.391   7.085   0.712 -0.2932  0.3022 -0.2972
16614SOL    HW151283   4.426   7.015   0.766  0.0175  0.0425 -0.8300
16614SOL    HW251284   4.435   7.075   0.627  0.5059  1.7414 -0.0775
16615SOL     OW51285   0.141   7.936  10.674  0.2469  0.3169 -0.4354
16615SOL    HW151286   0.135   8.027  10.700  0.7466  0.2534 -0.0892
16615SOL    HW251287   0.210   7.899  10.729  0.7605 -0.0137 -1.2726
16616SOL     OW51288   5.811   7.764  11.802  0.1545 -0.4004 -0.3651
16616SOL    HW151289   5.804   7.768  11.707  0.0463 -0.3490 -0.3555
16616SOL    HW251290   5.902   7.784  11.820  0.4908 -1.7045 -0.5351
16617SOL     OW51291   6.963   7.269   5.142 -0.4035  0.0527 -0.5973
16617SOL    HW151292   6.908   7.202   5.102  0.1700 -0.4878 -0.5036
16617SOL    HW251293   6.927   7.280   5.231 -1.2194  0.7242 -0.9953
16618SOL     OW51294   5.614   4.833   4.753 -0.3481  0.1622  0.0316
16618SOL    HW151295   5.647   4.798   4.670 -0.6181  1.0952 -0.4780
16618SOL    HW251296   5.692   4.842   4.807 -0.0098  0.6498 -0.5329
16619SOL     OW51297   1.147   3.649  10.701  0.2459 -0.0160  0.1520
16619SOL    HW151298   1.189   3.600  10.771 -1.0155 -0.6359  0.5018
16619SOL    HW251299   1.104   3.583  10.647  0.3412  0.5367 -0.6144
16620SOL     OW51300   4.355   1.611   5.776  0.3402 -0.4100  0.1639
16620SOL    HW151301   4.289   1.672   5.810 -0.6643 -0.6853 -1.2167
16620SOL    HW251302   4.433   1.630   5.827  0.0782  2.0719 -0.2472
16621SOL     OW51303   3.287   7.776  11.029  0.3988 -0.2189 -0.2905
16621SOL    HW151304   3.329   7.850  10.985  1.1352 -0.7702 -0.5340
16621SOL    HW251305   3.358   7.731  11.073 -0.1154 -0.5350  0.2338
16622SOL     OW51306   5.675   3.305   2.370  0.3714 -0.0589  0.4984
16622SOL    HW151307   5.720   3.382   2.335 -0.1812  0.2217  0.3999
16622SOL    HW251308   5.741   3.261   2.424  1.3329 -0.6476 -1.0988
16623SOL     OW51309   3.590   3.982   4.470 -0.1174 -0.0606 -0.4418
16623SOL    HW151310   3.589   3.911   4.534  0.9970 -0.8634 -1.2743
16623SOL    HW251311   3.680   4.015   4.473 -0.9840  2.4515  1.0906
16624SOL     OW51312   1.522   5.643   7.445  0.7861  0.0563 -0.2587
16624SOL    HW151313   1.509   5.724   7.495  1.3046  0.8664 -1.3918
16624SOL    HW251314   1.613   5.618   7.463  0.8770  0.1761 -0.5537
16625SOL     OW51315   1.450   7.659   3.842 -0.2337  0.5274 -0.3222
16625SOL    HW151316   1.532   7.616   3.868  0.3534  0.5060 -2.0577
16625SOL    HW251317   1.446   7.737   3.896 -0.9415 -1.2321  2.3741
16626SOL     OW51318   6.237   0.376   0.780 -0.1112 -0.7581 -0.3074
16626SOL    HW151319   6.331   0.395   0.774  0.1718 -1.6679  0.8734
16626SOL    HW251320   6.214   0.345   0.692 -0.1973  2.9322 -1.7661
16627SOL     OW51321   0.869   7.823  12.078  0.3881 -0.1316  0.5385
16627SOL    HW151322   0.839   7.732  12.066 -0.1072  0.0098  0.6617
16627SOL    HW251323   0.872   7.834  12.173  1.1243 -0.2309  0.5324
16628SOL     OW51324   7.822   5.006   1.304 -0.2610  0.1363 -0.0280
16628SOL    HW151325   7.833   4.935   1.240  1.7257 -0.2571  0.6925
16628SOL    HW251326   7.783   4.963   1.380 -0.0483  0.0396  0.0260
16629SOL     OW51327   7.252   1.585   7.272  0.2631 -0.1925 -0.4171
16629SOL    HW151328   7.279   1.508   7.323 -1.3025 -1.0294 -0.7908
16629SOL    HW251329   7.334   1.622   7.240  1.0358 -2.1830 -0.8799
16630SOL     OW51330   3.934   1.856   4.460 -0.3610  0.8656  0.3076
16630SOL    HW151331   3.942   1.761   4.465  0.7883  0.9438  0.3910
16630SOL    HW251332   3.865   1.878   4.522  0.6717  0.2315  1.7403
16631SOL     OW51333   2.197   1.902   3.934 -0.2366  1.0823 -0.2644
16631SOL    HW151334   2.239   1.962   3.872 -1.2444  2.0243 -0.0725
16631SOL    HW251335   2.180   1.956   4.012 -0.0473  0.2149  0.3874
16632SOL     OW51336   0.238   0.160  11.555 -0.3365 -0.7842  0.3140
16632SOL    HW151337   0.142   0.163  11.556 -0.3427  0.0423 -0.8476
16632SOL    HW251338   0.262   0.136  11.645 -1.5626  1.5266  1.3522
16633SOL     OW51339   2.307   0.540  11.813 -0.0466 -0.4346  0.3298
16633SOL    HW151340   2.282   0.465  11.868 -0.6260 -0.2151  0.3674
16633SOL    HW251341   2.395   0.518  11.781  1.4476  0.4992  3.3371
16634SOL     OW51342   5.438   7.936   1.595  0.4537 -0.2041 -0.1284
16634SOL    HW151343   5.385   7.864   1.630  0.6941 -0.4974 -0.3639
16634SOL    HW251344   5.422   7.934   1.501 -2.0003  2.0112  0.1227
16635SOL     OW51345   5.941   6.937   4.838 -0.1204  0.5671 -0.2069
16635SOL    HW151346   5.908   6.849   4.856  0.6502  0.1100 -0.9535
16635SOL    HW251347   5.892   6.994   4.898 -0.0835 -0.4639  0.8417
16636SOL     OW51348   0.491   3.415  11.252  0.1261 -0.0637 -0.0621
16636SOL    HW151349   0.530   3.351  11.312  1.3975 -0.9174 -1.7025
16636SOL    HW251350   0.463   3.363  11.177 -0.6561  1.0858 -0.5954
16637SOL     OW51351   1.949   4.327   6.314 -0.5120  0.1831  0.4881
16637SOL    HW151352   2.005   4.252   6.295  0.6294  1.1233  0.0197
16637SOL    HW251353   1.926   4.318   6.407 -1.6768 -1.5456  0.0827
16638SOL     OW51354   3.102   6.385   3.020  0.1271  0.1235  0.7127
16638SOL    HW151355   3.169   6.423   3.077  1.2709  0.3749 -0.7345
16638SOL    HW251356   3.092   6.448   2.948  0.9529 -1.5257 -0.9465
16639SOL     OW51357   0.026   1.371   3.005 -0.3356 -0.0954  0.2150
16639SOL    HW151358   0.008   1.441   3.068  1.4295  0.6072 -0.0016
16639SOL    HW251359   0.065   1.301   3.058  1.0344  0.4474 -0.0425
16640SOL     OW51360   3.251   0.402   6.991 -0.4072 -0.2376 -0.0189
16640SOL    HW151361   3.256   0.374   7.083 -0.1970  0.8180  0.3089
16640SOL    HW251362   3.342   0.413   6.965 -0.4801 -0.1375 -0.2303
16641SOL     OW51363   0.142   1.214   1.373  0.2074 -0.5221 -0.2168
16641SOL    HW151364   0.071   1.189   1.313  0.1397 -0.9858  0.0506
16641SOL    HW251365   0.164   1.133   1.419 -0.4185  0.0166  1.0920
16642SOL     OW51366   1.290   5.177   0.051 -0.1987  0.2470 -0.1805
16642SOL    HW151367   1.229   5.224   0.107 -0.0838 -0.8267  0.9045
16642SOL    HW251368   1.238   5.106   0.013  0.7309 -2.0309  2.4564
16643SOL     OW51369   0.293   2.458  10.648 -0.3257  0.2034 -0.2697
16643SOL    HW151370   0.287   2.405  10.568 -0.8392  0.6709 -0.5521
16643SOL    HW251371   0.372   2.427  10.692 -0.9035 -1.1757 -0.1563
16644SOL     OW51372   0.341   5.298   6.393 -0.5273  0.3200  0.0359
16644SOL    HW151373   0.380   5.380   6.362 -2.5116  1.4159  0.2818
16644SOL    HW251374   0.319   5.315   6.484 -2.8633  0.2977 -0.4789
16645SOL     OW51375   5.920   7.570   6.150  0.1216 -0.2169 -0.2994
16645SOL    HW151376   5.859   7.558   6.077  0.0616 -0.2397 -0.2461
16645SOL    HW251377   5.901   7.498   6.209  0.3841 -0.3753 -0.4066
16646SOL     OW51378   1.433   4.284   4.672  0.7301  0.2705  0.0189
16646SOL    HW151379   1.420   4.324   4.586  1.2509  0.4913  0.0358
16646SOL    HW251380   1.445   4.359   4.731  1.6751  0.1039  0.0588
16647SOL     OW51381   0.580   1.488  12.319  0.1899  0.0798  0.1230
16647SOL    HW151382   0.618   1.462  12.235 -1.6721 -0.8764 -0.4723
16647SOL    HW251383   0.532   1.411  12.349 -0.1455  0.7870  1.4989
16648SOL     OW51384   4.083   7.179   2.770  0.2257  0.2108  0.0066
16648SOL    HW151385   4.151   7.244   2.787 -1.6960  1.8880  1.7754
16648SOL    HW251386   4.081   7.170   2.675  2.2885  0.7565 -0.1334
16649SOL     OW51387   0.249   3.235   4.329 -0.6539 -0.0027 -0.1964
16649SOL    HW151388   0.197   3.261   4.405  0.1253  1.8165 -0.2288
16649SOL    HW251389   0.204   3.276   4.255 -0.5932 -0.5494 -0.5366
16650SOL     OW51390   6.920   0.020   1.811  0.0028  0.2605 -0.0919
16650SOL    HW151391   6.928   0.099   1.863  1.4137  0.4678 -0.5914
16650SOL    HW251392   6.951   0.045   1.724  1.0167 -0.9812 -0.1086
16651SOL     OW51393   5.191   1.445   9.245  0.0742 -0.2564  0.1800
16651SOL    HW151394   5.256   1.411   9.306 -0.3519 -0.6068  0.4507
16651SOL    HW251395   5.136   1.504   9.297  2.0035  2.5223 -0.7084
16652SOL     OW51396   3.523   1.547   5.429 -0.0800  1.0017  0.2057
16652SOL    HW151397   3.595   1.483   5.424 -0.0715  1.1138 -1.7822
16652SOL    HW251398   3.455   1.510   5.373 -1.6433  0.8714  2.1088
16653SOL     OW51399   1.148   7.397   2.474 -0.3987 -0.1154 -0.7739
16653SOL    HW151400   1.223   7.365   2.524 -0.0808 -0.4153 -1.4260
16653SOL    HW251401   1.112   7.319   2.433 -0.8064  0.0906 -0.8057
16654SOL     OW51402   1.299   3.349   6.110  0.7034 -0.1070  0.0474
16654SOL    HW151403   1.283   3.257   6.133 -0.3135  0.4380  1.6547
16654SOL    HW251404   1.220   3.395   6.139  0.9449  1.2172 -1.2597
16655SOL     OW51405   6.981   3.165  12.111  0.8104  0.1742  0.1639
16655SOL    HW151406   7.003   3.123  12.028 -0.2292  0.4961 -0.2967
16655SOL    HW251407   6.904   3.117  12.142 -1.4431  2.6473 -1.1821
16656SOL     OW51408   6.393   4.794   6.413  0.2252  0.4430 -0.1981
16656SOL    HW151409   6.341   4.723   6.450 -1.0357  0.2944 -2.1168
16656SOL    HW251410   6.387   4.781   6.318  0.7231  2.5882 -0.5772
16657SOL     OW51411   0.708   0.032  11.371  0.2800 -0.0089  0.0877
16657SOL    HW151412   0.660   0.009  11.451  1.3849  0.0501  0.8005
16657SOL    HW251413   0.750   0.116  11.392 -0.8168  0.9038 -1.1956
16658SOL     OW51414   1.043   7.480   5.294  0.1098  0.0124 -0.0994
16658SOL    HW151415   1.085   7.394   5.299  0.9780  0.4842  1.2224
16658SOL    HW251416   0.990   7.476   5.214  0.2887 -1.6675 -0.1689
16659SOL     OW51417   2.147   3.742   4.750  0.1478  0.1575 -0.0691
16659SOL    HW151418   2.144   3.816   4.689  0.8173  0.0629 -0.2194
16659SOL    HW251419   2.105   3.775   4.829 -2.0741 -0.1667 -1.0341
16660SOL     OW51420   5.525   6.109   9.692  0.1020  0.2140  0.2100
16660SOL    HW151421   5.452   6.075   9.743  0.0560  0.0928  0.0631
16660SOL    HW251422   5.529   6.052   9.615  1.7410 -1.2229  1.2667
16661SOL     OW51423   0.280   2.792   7.988 -0.4970  0.5104  0.2225
16661SOL    HW151424   0.310   2.714   7.940  0.4701  1.0805 -0.1262
16661SOL    HW251425   0.187   2.800   7.966 -0.5631 -0.4332  0.1106
16662SOL     OW51426   7.003   1.736   6.300 -0.0343  0.0597 -0.2461
16662SOL    HW151427   6.943   1.689   6.242  0.4238  0.7765 -1.3278
16662SOL    HW251428   6.946   1.778   6.364 -0.7357  0.8800 -1.3658
16663SOL     OW51429   7.251   4.444   7.607  0.0404 -0.0349  0.2712
16663SOL    HW151430   7.298   4.369   7.643 -1.3598 -0.8505  0.4707
16663SOL    HW251431   7.158   4.421   7.616 -0.4416  1.9220  0.7830
16664SOL     OW51432   4.570   7.925   5.599 -1.0441 -0.8638 -0.1015
16664SOL    HW151433   4.635   7.955   5.662 -1.8081  0.0166  0.2917
16664SOL    HW251434   4.486   7.955   5.634 -1.5404 -0.8428 -1.2470
16665SOL     OW51435   0.107   7.121   3.862 -0.6824  0.5011 -0.0241
16665SOL    HW151436   0.164   7.060   3.814 -0.8225 -0.0155  0.4518
16665SOL    HW251437   0.121   7.098   3.954 -0.3839  1.5073  0.1943
16666SOL     OW51438   4.885   6.662   8.204 -0.3187  0.4064  0.3689
16666SOL    HW151439   4.849   6.746   8.174  0.8814  0.3976 -1.2531
16666SOL    HW251440   4.888   6.608   8.125  1.6344 -0.1430  0.7558
16667SOL     OW51441   0.143   7.579   7.838  0.3383  0.4280  0.3452
16667SOL    HW151442   0.073   7.588   7.774 -2.5137 -0.4366  3.0451
16667SOL    HW251443   0.206   7.521   7.797 -1.4632 -0.3017 -1.5793
16668SOL     OW51444   5.597   4.020   1.862 -0.1017 -0.5925  0.1052
16668SOL    HW151445   5.633   3.990   1.946  1.8238  0.0033 -0.4367
16668SOL    HW251446   5.509   4.051   1.882  0.1054 -1.0236  1.7892
16669SOL     OW51447   4.894   2.198   2.443 -0.2555 -0.5170 -0.8548
16669SOL    HW151448   4.979   2.221   2.407 -0.3702  1.6225  0.1340
16669SOL    HW251449   4.882   2.257   2.517 -1.8878 -1.8975  0.0557
16670SOL     OW51450   2.162   2.366  11.502 -0.1128  1.0091  0.4559
16670SOL    HW151451   2.191   2.314  11.427 -2.1422  0.4080  0.0124
16670SOL    HW251452   2.168   2.456  11.472 -2.1383  0.7301 -0.9861
16671SOL     OW51453   1.749   5.518   4.157 -0.2571  0.1260  0.2068
16671SOL    HW151454   1.731   5.454   4.226  2.0069 -0.3575  0.4355
16671SOL    HW251455   1.775   5.597   4.204 -0.3426  0.3303 -0.0886
16672SOL     OW51456   4.120   6.559   8.050 -0.3432 -0.8461 -0.6521
16672SOL    HW151457   4.177   6.499   8.098  0.6533 -0.0398 -0.7947
16672SOL    HW251458   4.050   6.579   8.112  1.1283  0.4860  0.6729
16673SOL     OW51459   7.621   6.112  10.777  0.2786 -0.0122  0.5101
16673SOL    HW151460   7.619   6.129  10.683 -1.2512  0.6145  0.6201
16673SOL    HW251461   7.566   6.035  10.788 -0.9320  0.8965  1.0397
16674SOL     OW51462   1.616   0.560   4.658 -0.0338 -0.5064  0.1430
16674SOL    HW151463   1.534   0.591   4.620 -0.1517 -1.7880 -0.7049
16674SOL    HW251464   1.597   0.471   4.688  0.7312 -0.3882  1.0242
16675SOL     OW51465   4.905   2.394   5.943 -0.1744  0.2799 -0.5923
16675SOL    HW151466   4.892   2.318   6.000  1.3102 -0.2219 -0.8719
16675SOL    HW251467   4.857   2.372   5.863  0.4123 -0.4736 -0.7507
16676SOL     OW51468   2.000   1.861   2.125 -0.0421 -0.2182  0.3744
16676SOL    HW151469   2.071   1.855   2.189  1.5627 -0.8792 -1.3794
16676SOL    HW251470   2.003   1.952   2.094  0.0786 -0.2605  0.2614
16677SOL     OW51471   3.020   5.447   9.264  0.2917  0.6190  0.3332
16677SOL    HW151472   3.049   5.359   9.289 -0.5780  0.7271  1.8860
16677SOL    HW251473   2.942   5.432   9.210  0.9546  0.4237 -0.5911
16678SOL     OW51474   6.779   3.744   7.475  0.6515  0.0710 -0.2118
16678SOL    HW151475   6.761   3.651   7.459 -0.4011 -0.0697  1.4934
16678SOL    HW251476   6.871   3.746   7.501  0.3307 -0.7224  1.0838
16679SOL     OW51477   4.919   0.473  11.780 -0.1368  0.3790 -0.5209
16679SOL    HW151478   4.827   0.494  11.767 -0.5443 -0.4152  0.9120
16679SOL    HW251479   4.934   0.486  11.874  1.1430  0.2480 -0.6897
16680SOL     OW51480   2.677   1.727   7.679  0.1871  0.1462  0.6510
16680SOL    HW151481   2.712   1.728   7.590 -0.3326 -1.2110  0.4034
16680SOL    HW251482   2.587   1.694   7.669 -0.2609  1.0230  1.5643
16681SOL     OW51483   5.153   7.438   0.228  0.3423  0.0188 -0.1428
16681SOL    HW151484   5.092   7.505   0.197  2.4892  1.7602 -0.9012
16681SOL    HW251485   5.124   7.358   0.186 -1.2987  0.8139 -0.6139
16682SOL     OW51486   4.610   6.248   6.394 -0.4881 -0.2140 -0.2008
16682SOL    HW151487   4.562   6.193   6.456  0.7530 -1.0096  0.0970
16682SOL    HW251488   4.640   6.187   6.326  1.1427  0.0163  0.2776
16683SOL     OW51489   1.866   7.267   5.620  0.4230  0.3040 -0.4152
16683SOL    HW151490   1.952   7.308   5.624 -0.2029  1.6256  0.0888
16683SOL    HW251491   1.810   7.332   5.576 -1.0541  0.9138  2.1225
16684SOL     OW51492   3.162   5.802   3.000 -0.2126 -0.4325  0.3738
16684SOL    HW151493   3.141   5.806   2.907 -0.1750 -2.1150  0.2584
16684SOL    HW251494   3.239   5.858   3.010 -0.9665  0.7706 -0.3491
16685SOL     OW51495   1.031   0.095  11.895  0.5713 -0.1397  0.6885
16685SOL    HW151496   0.989   0.069  11.977 -1.1728  0.8194  0.1542
16685SOL    HW251497   0.959   0.101  11.833  1.4376  1.9080 -0.2019
16686SOL     OW51498   3.982   2.832   0.725  0.1702  0.0638 -0.2280
16686SOL    HW151499   3.934   2.757   0.690  0.7890 -0.4845  0.0748
16686SOL    HW251500   4.064   2.834   0.676 -0.5150  1.5822 -1.4252
16687SOL     OW51501   6.297   3.926  12.396 -0.3044  0.4502 -0.1781
16687SOL    HW151502   6.320   3.952  12.485 -2.6164  0.2422  0.5200
16687SOL    HW251503   6.259   3.839  12.406 -1.8684  0.9915 -1.1687
16688SOL     OW51504   7.397   7.154   7.781 -0.1570 -0.4656  0.3744
16688SOL    HW151505   7.468   7.189   7.834  0.4240  1.1915 -1.4013
16688SOL    HW251506   7.346   7.231   7.754 -1.2863 -1.3992 -0.2700
16689SOL     OW51507   6.791   7.262  11.581  0.2421 -0.2627 -0.6690
16689SOL    HW151508   6.880   7.281  11.611  0.0100 -0.1960 -0.0057
16689SOL    HW251509   6.767   7.336  11.525  1.0984 -0.9270 -1.9761
16690SOL     OW51510   4.590   2.799   5.261 -0.3251 -0.0281  0.8981
16690SOL    HW151511   4.616   2.709   5.280  1.7983  0.6193  1.3335
16690SOL    HW251512   4.523   2.819   5.327 -1.6107 -1.5807  0.1289
16691SOL     OW51513   4.758   3.094   2.777  0.1443  0.0843 -0.0326
16691SOL    HW151514   4.817   3.169   2.771  0.7470 -0.4751 -1.6564
16691SOL    HW251515   4.692   3.110   2.710 -0.3757 -0.3049  0.3769
16692SOL     OW51516   0.524   5.097  12.050 -0.7741  0.1000 -0.4521
16692SOL    HW151517   0.582   5.063  12.118 -0.8673 -2.0888 -1.3585
16692SOL    HW251518   0.457   5.146  12.097 -0.4656 -0.8046  0.9713
16693SOL     OW51519   1.402   1.401  10.178  0.1993  0.1273 -0.4201
16693SOL    HW151520   1.317   1.356  10.185  0.5031 -0.2458  1.0534
16693SOL    HW251521   1.434   1.377  10.091 -0.5844 -0.8473 -0.4594
16694SOL     OW51522   4.175   3.426   8.358  0.2902 -0.0362 -0.2141
16694SOL    HW151523   4.270   3.427   8.360  0.2946  1.2410  0.6328
16694SOL    HW251524   4.151   3.334   8.345  1.6206 -0.5486  0.7828
16695SOL     OW51525   6.499   7.428   9.330  0.0804  0.4803  0.5651
16695SOL    HW151526   6.550   7.430   9.411 -0.5532 -0.0238  0.9877
16695SOL    HW251527   6.560   7.457   9.262  0.8672  0.0959  1.0905
16696SOL     OW51528   6.506   0.423   6.977  0.8502 -0.2658  0.2751
16696SOL    HW151529   6.537   0.421   6.887  0.2972  1.6197  0.0040
16696SOL    HW251530   6.426   0.475   6.975  0.4423 -0.7660  1.7512
16697SOL     OW51531   0.155   0.913   4.099  0.0146  0.0981 -0.5736
16697SOL    HW151532   0.227   0.852   4.110  0.2080  0.0776 -1.8181
16697SOL    HW251533   0.173   0.983   4.161  0.9813 -0.0163 -0.7168
16698SOL     OW51534   1.905   4.743   9.624  0.1289 -0.2109 -0.3373
16698SOL    HW151535   1.958   4.715   9.699  0.7578  1.1806 -0.2341
16698SOL    HW251536   1.836   4.797   9.663  0.3254  0.3356 -0.7488
16699SOL     OW51537   3.562   1.758   0.860 -0.4129  0.0168  0.2754
16699SOL    HW151538   3.595   1.826   0.802 -0.9128 -0.8373 -1.0613
16699SOL    HW251539   3.632   1.693   0.862  0.5832  1.0641  2.5220
16700SOL     OW51540   1.563   4.178   0.920  0.1653 -0.2415  0.3103
16700SOL    HW151541   1.539   4.226   0.999 -1.0198 -0.3998  0.0692
16700SOL    HW251542   1.601   4.096   0.953 -1.2152 -0.7374  0.7459
16701SOL     OW51543   4.852   2.925   0.450  0.4295  1.0376 -0.3995
16701SOL    HW151544   4.909   2.876   0.391  0.3769 -1.0870  1.1814
16701SOL    HW251545   4.770   2.935   0.402  0.5067 -0.3220 -0.8511
16702SOL     OW51546   1.602   3.483   1.807 -0.1486 -0.3201 -0.6817
16702SOL    HW151547   1.630   3.557   1.860  1.4517 -1.0096 -0.5144
16702SOL    HW251548   1.591   3.520   1.719 -0.6268  0.3644 -0.3454
16703SOL     OW51549   4.824   4.928   8.646 -0.7604  0.2301 -0.1390
16703SOL    HW151550   4.773   4.847   8.648 -3.0196  1.5331 -0.7790
16703SOL    HW251551   4.792   4.974   8.569 -0.0316  2.0119  0.5739
16704SOL     OW51552   4.964   6.951  11.533 -0.4665 -0.3144 -0.3273
16704SOL    HW151553   4.920   6.972  11.451 -1.7304 -0.2786  0.3377
16704SOL    HW251554   4.893   6.938  11.596  0.3903 -2.5106  0.2704
16705SOL     OW51555   6.998   5.101  11.539 -0.2451 -0.2345 -0.4693
16705SOL    HW151556   6.997   5.134  11.629 -1.4400 -1.7657  0.1154
16705SOL    HW251557   7.068   5.036  11.539 -0.2018 -0.1877 -0.6758
16706SOL     OW51558   3.342   5.071   5.332  0.0424  0.0713 -0.0805
16706SOL    HW151559   3.275   5.084   5.399 -0.1545 -2.1091  0.2159
16706SOL    HW251560   3.313   4.994   5.282  1.8206 -0.3515 -0.5647
16707SOL     OW51561   6.679   7.204  12.188  0.2942 -0.2133  0.9790
16707SOL    HW151562   6.653   7.295  12.204 -0.0534  0.0201 -0.6911
16707SOL    HW251563   6.755   7.211  12.130 -0.3868 -0.9758 -0.0393
16708SOL     OW51564   1.759   4.972   2.703 -0.1951 -0.0383 -0.5936
16708SOL    HW151565   1.775   5.062   2.674 -0.6375  0.2848  0.1448
16708SOL    HW251566   1.669   4.954   2.677 -0.1626 -0.2063 -0.5873
16709SOL     OW51567   2.771   5.599   0.809  0.0070 -0.0924 -0.6196
16709SOL    HW151568   2.862   5.570   0.811  0.5058  1.4292  0.7269
16709SOL    HW251569   2.754   5.618   0.716  1.0938 -0.2552 -0.8609
16710SOL     OW51570   3.872   7.870   3.107 -0.3117  0.2793  0.5230
16710SOL    HW151571   3.870   7.964   3.089  1.3073  0.2343 -0.0928
16710SOL    HW251572   3.934   7.835   3.044 -2.4604 -1.5724 -0.7106
16711SOL     OW51573   5.385   0.436   7.702  0.0317 -0.4410 -0.1906
16711SOL    HW151574   5.398   0.528   7.681  2.7978  0.1261  3.0955
16711SOL    HW251575   5.301   0.434   7.748 -0.0099  0.4822 -0.2046
16712SOL     OW51576   4.337   2.715   8.207 -0.2049  0.1401 -0.2349
16712SOL    HW151577   4.386   2.678   8.135 -1.2409  0.0485 -0.9134
16712SOL    HW251578   4.402   2.761   8.260  0.6905 -0.5111 -0.7546
16713SOL     OW51579   5.878   4.876   5.548 -0.1360  0.0960  0.6242
16713SOL    HW151580   5.956   4.907   5.594  0.1899  0.8369 -0.3889
16713SOL    HW251581   5.816   4.853   5.617  0.5128  0.7293  1.4259
16714SOL     OW51582   0.009   7.290  10.028 -0.3823 -0.5498 -0.2666
16714SOL    HW151583   0.079   7.266   9.968  1.3030  1.5045  0.7574
16714SOL    HW251584  -0.041   7.357   9.981 -0.3678 -0.4743 -0.1733
16715SOL     OW51585   7.406   4.860  11.383 -0.0804  0.0294 -0.4979
16715SOL    HW151586   7.411   4.835  11.291  1.1539 -1.2848 -0.1253
16715SOL    HW251587   7.479   4.812  11.424 -1.2463 -0.2690  1.3421
16716SOL     OW51588   6.810   4.203   2.974  0.4398  0.0864  0.2177
16716SOL    HW151589   6.861   4.271   2.930 -0.0050  1.2746  1.4482
16716SOL    HW251590   6.858   4.186   3.055 -0.5275  0.4549  0.8897
16717SOL     OW51591   7.430   6.501   1.601  0.2749 -0.6491  0.8430
16717SOL    HW151592   7.367   6.480   1.669  1.3301 -2.0734  1.4474
16717SOL    HW251593   7.427   6.596   1.593 -0.6156 -0.5509  2.1349
16718SOL     OW51594   0.898   5.118  10.345  0.3651  0.3038  0.3784
16718SOL    HW151595   0.941   5.201  10.322 -0.5845  0.2704 -1.7002
16718SOL    HW251596   0.939   5.093  10.428  1.2542  2.4324  0.6644
16719SOL     OW51597   3.903   0.571   9.482 -0.0465  0.4395  0.6520
16719SOL    HW151598   3.952   0.640   9.438 -0.5243  0.1946 -0.3040
16719SOL    HW251599   3.947   0.490   9.455 -1.5132  0.1365 -1.0298
16720SOL     OW51600   1.924   6.670   7.224 -0.5790 -0.2201  0.1802
16720SOL    HW151601   1.859   6.645   7.291 -0.6360  0.8931  0.5526
16720SOL    HW251602   1.892   6.753   7.189  1.5312  1.3105  1.6429
16721SOL     OW51603   2.482   0.648   9.232 -0.3686  0.2911 -0.2813
16721SOL    HW151604   2.446   0.737   9.233  0.2191  0.5533 -1.3578
16721SOL    HW251605   2.570   0.658   9.194  0.0738 -0.6183  0.4672
16722SOL     OW51606   6.767   7.238   0.062 -0.3138  0.1132  0.4232
16722SOL    HW151607   6.699   7.285   0.112  1.3150  1.3217  1.6177
16722SOL    HW251608   6.744   7.254  -0.030 -0.9569  1.5566  0.8011
16723SOL     OW51609   0.726   5.730   3.269 -0.3304  0.1341 -0.2693
16723SOL    HW151610   0.793   5.699   3.329 -0.7145 -0.8222 -0.3144
16723SOL    HW251611   0.663   5.777   3.324 -0.3833 -0.2391 -0.0124
16724SOL     OW51612   0.248   2.129   9.858 -0.0884 -0.1081  0.0174
16724SOL    HW151613   0.163   2.099   9.889 -0.5279  1.5791  0.5600
16724SOL    HW251614   0.278   2.061   9.798 -2.5057 -0.0660 -1.3670
16725SOL     OW51615   0.058   3.452   3.064 -0.2618  0.2661 -0.6079
16725SOL    HW151616  -0.018   3.493   3.024 -0.2006  0.4456 -0.5437
16725SOL    HW251617   0.130   3.514   3.048 -0.1728  0.1933 -0.4936
16726SOL     OW51618   6.628   5.250   8.525 -0.7515  0.0291  0.5553
16726SOL    HW151619   6.556   5.204   8.482 -1.4918  0.6293  1.1314
16726SOL    HW251620   6.587   5.296   8.598  0.4915 -1.1202  2.0543
16727SOL     OW51621   3.759   1.157  10.774  0.7103 -0.0819 -0.3194
16727SOL    HW151622   3.786   1.245  10.748 -1.4987  1.1315  1.1627
16727SOL    HW251623   3.718   1.120  10.696  0.2187  0.8353 -0.5075
16728SOL     OW51624   4.644   7.114   7.808  0.3115 -0.0193 -0.3045
16728SOL    HW151625   4.617   7.185   7.865 -0.7466  0.1841 -1.0258
16728SOL    HW251626   4.666   7.042   7.867  0.7695  0.6890  0.4008
16729SOL     OW51627   4.156   3.112   7.824  0.3630 -0.4321 -0.8165
16729SOL    HW151628   4.233   3.121   7.767  1.8469  0.0622  1.1656
16729SOL    HW251629   4.187   3.059   7.897 -0.9619  0.4470  0.4163
16730SOL     OW51630   5.327   1.039   0.231  0.0950  0.0110 -0.0325
16730SOL    HW151631   5.412   1.002   0.255  0.9077  1.9814  0.3271
16730SOL    HW251632   5.348   1.109   0.170 -1.3040  0.4281 -0.0757
16731SOL     OW51633   1.646   6.892  11.187  0.0508 -0.2838  0.0591
16731SOL    HW151634   1.730   6.906  11.231  0.9998 -1.9926 -1.1056
16731SOL    HW251635   1.583   6.881  11.259  1.0760 -0.3639  0.9723
16732SOL     OW51636   2.597   4.039   3.993  0.4669 -0.3599  0.3256
16732SOL    HW151637   2.684   4.060   4.028  0.8422 -1.5871  0.1912
16732SOL    HW251638   2.603   3.946   3.970 -0.6160 -0.2367 -0.4963
16733SOL     OW51639   0.376   2.566   7.850 -0.0974  0.1860 -0.0725
16733SOL    HW151640   0.332   2.579   7.766 -0.7379  1.2516  0.4189
16733SOL    HW251641   0.442   2.499   7.831  0.6880  1.3502 -1.7563
16734SOL     OW51642   2.938   4.496   8.207  0.8108  0.2839  0.0698
16734SOL    HW151643   2.936   4.400   8.213  3.4503  0.1818  0.4911
16734SOL    HW251644   2.992   4.513   8.130  0.0598  1.4620 -0.2125
16735SOL     OW51645   7.658   3.148   2.164 -0.0088 -0.1496 -0.0662
16735SOL    HW151646   7.698   3.223   2.206 -1.0885 -0.5250  1.7391
16735SOL    HW251647   7.731   3.097   2.130  0.7703  1.2692 -0.5708
16736SOL     OW51648   0.231   7.781   8.686  0.5400  0.4637  0.0623
16736SOL    HW151649   0.314   7.809   8.649  0.9589  0.7539  1.1789
16736SOL    HW251650   0.197   7.858   8.731  1.0067 -0.3459  1.9276
16737SOL     OW51651   3.291   6.634   4.112  0.2906  0.1299 -0.5354
16737SOL    HW151652   3.280   6.680   4.029 -0.6193  0.4725 -0.2334
16737SOL    HW251653   3.317   6.545   4.087  0.7089  0.4197 -1.1569
16738SOL     OW51654   4.310   4.485   3.500 -0.2610 -0.0919 -0.0021
16738SOL    HW151655   4.299   4.413   3.438 -1.5556  2.2896 -2.7830
16738SOL    HW251656   4.392   4.526   3.475 -0.9086  1.0423 -0.3372
16739SOL     OW51657   5.639   1.311  11.605 -0.3308  0.4286 -0.5189
16739SOL    HW151658   5.649   1.234  11.549 -2.1006  0.3610 -0.8053
16739SOL    HW251659   5.681   1.287  11.687  0.0885 -0.4314 -0.9681
16740SOL     OW51660   2.644   7.491   1.426 -0.1193  0.2281 -0.4644
16740SOL    HW151661   2.587   7.491   1.503 -0.0756  0.8219 -0.4307
16740SOL    HW251662   2.719   7.545   1.451 -0.0622  0.3517 -0.8888
16741SOL     OW51663   5.003   3.412   2.242 -0.2965 -0.5983  0.6793
16741SOL    HW151664   5.065   3.396   2.170 -1.1514 -1.5246  0.1232
16741SOL    HW251665   5.035   3.493   2.283  0.3813 -0.1948 -0.5638
16742SOL     OW51666   7.339   6.583  11.212  0.3069 -0.2381  0.2939
16742SOL    HW151667   7.360   6.676  11.199  0.6230 -0.2319  0.8206
16742SOL    HW251668   7.423   6.542  11.229  0.3075 -0.8143 -0.9714
16743SOL     OW51669   2.519   6.560   2.481 -0.0401  0.5378  0.0907
16743SOL    HW151670   2.523   6.466   2.500 -2.0793  0.5659  0.9265
16743SOL    HW251671   2.547   6.567   2.390 -1.1485 -1.0598 -0.4194
16744SOL     OW51672   6.978   6.077  10.175  0.1902  0.1215  0.2384
16744SOL    HW151673   6.930   6.129  10.111 -0.7644 -0.4960  0.4265
16744SOL    HW251674   6.914   6.059  10.244  1.0824  0.4211  1.1709
16745SOL     OW51675   3.204   1.086   6.514 -0.6806  0.0947  0.9512
16745SOL    HW151676   3.115   1.050   6.515  0.3103 -2.5398  2.1981
16745SOL    HW251677   3.222   1.106   6.606 -0.1052  0.9832  0.6506
16746SOL     OW51678   0.354   6.010  12.084 -0.1716  0.3871  0.5877
16746SOL    HW151679   0.392   5.942  12.141 -0.1037  0.6382  0.8457
16746SOL    HW251680   0.341   6.085  12.142  0.3211  0.8010  0.1693
16747SOL     OW51681   3.021   1.875  10.581  0.8987  0.2507 -0.5170
16747SOL    HW151682   3.074   1.806  10.621  0.2260  1.4359  2.6602
16747SOL    HW251683   2.957   1.828  10.527  0.7404 -1.6166  1.1921
16748SOL     OW51684   7.645   0.478   8.174 -0.1698 -0.7635  0.4060
16748SOL    HW151685   7.728   0.515   8.144 -0.5792  1.4621  1.8370
16748SOL    HW251686   7.670   0.398   8.220  1.1723 -0.2181  0.6780
16749SOL     OW51687   6.797   5.888   1.497  0.0856 -0.2715 -0.3018
16749SOL    HW151688   6.893   5.883   1.489  0.2268  0.4509  0.7242
16749SOL    HW251689   6.773   5.957   1.435  0.4094  0.5589  0.4654
16750SOL     OW51690   1.558   0.639   7.886 -0.0576  0.0165 -0.0417
16750SOL    HW151691   1.572   0.544   7.887  2.2251  0.2479 -1.6487
16750SOL    HW251692   1.622   0.674   7.947  0.7419  0.6197 -1.1758
16751SOL     OW51693   0.167   0.602   7.515 -0.2358  0.1555 -0.7048
16751SOL    HW151694   0.213   0.518   7.524 -0.0532  0.1133 -1.8796
16751SOL    HW251695   0.218   0.663   7.568 -0.3649 -0.4666  0.1556
16752SOL     OW51696   4.665   3.110   4.754  0.0188  0.6064  0.3378
16752SOL    HW151697   4.692   3.182   4.697  1.9673  0.9655  1.5972
16752SOL    HW251698   4.743   3.055   4.762  0.0187  0.8451  2.9746
16753SOL     OW51699   0.889   3.289  10.211  0.1293  0.2252  0.2578
16753SOL    HW151700   0.969   3.310  10.258  0.5439  0.2633 -0.4566
16753SOL    HW251701   0.892   3.194  10.198 -1.0132 -0.1420  2.1422
16754SOL     OW51702   0.651   4.226   8.275 -0.1713 -0.1732 -0.0324
16754SOL    HW151703   0.704   4.236   8.354 -0.5087  1.3556  0.0417
16754SOL    HW251704   0.661   4.134   8.251  0.0584 -0.6371  1.6939
16755SOL     OW51705   5.232   6.923  11.493 -0.2138  0.1399 -0.5390
16755SOL    HW151706   5.139   6.921  11.515 -0.0055  1.2329  0.5426
16755SOL    HW251707   5.276   6.894  11.573  0.4709  2.2199 -0.1125
16756SOL     OW51708   5.149   0.921   9.150  0.2594  0.2956 -0.0591
16756SOL    HW151709   5.098   0.841   9.138 -0.7358  0.9259 -0.1459
16756SOL    HW251710   5.240   0.895   9.132 -0.3370 -0.2403 -2.5486
16757SOL     OW51711   5.603   1.158   1.815  0.3790 -0.2064 -0.5109
16757SOL    HW151712   5.626   1.185   1.904 -0.1148 -1.2630 -0.0503
16757SOL    HW251713   5.665   1.205   1.759  0.3094  0.9447  0.3391
16758SOL     OW51714   1.365   0.724   3.291 -0.0816 -0.0056 -0.0610
16758SOL    HW151715   1.289   0.716   3.233 -1.2304 -1.0097  1.4980
16758SOL    HW251716   1.394   0.634   3.306  1.1037  0.3376 -0.2083
16759SOL     OW51717   2.878   5.799   6.697  0.1225  0.1762 -0.2756
16759SOL    HW151718   2.929   5.734   6.649 -0.8693  0.2158 -1.4196
16759SOL    HW251719   2.787   5.775   6.682 -0.2334  0.5872  1.0596
16760SOL     OW51720   0.375   7.359   0.306 -0.5711 -0.1707  0.5218
16760SOL    HW151721   0.312   7.430   0.316  1.4724  1.8673 -0.3026
16760SOL    HW251722   0.378   7.342   0.212 -0.5085 -0.8402  0.6407
16761SOL     OW51723   6.639   5.438   0.061 -0.2026  0.6332  0.4253
16761SOL    HW151724   6.610   5.494  -0.010  0.6524 -0.0670 -0.4991
16761SOL    HW251725   6.629   5.349   0.027 -1.3247  0.1914  1.7795
16762SOL     OW51726   4.253   7.095   9.602 -0.0325  0.0448  0.2480
16762SOL    HW151727   4.219   7.031   9.539  2.0883 -0.9588  0.0117
16762SOL    HW251728   4.278   7.042   9.678  1.7247  0.5560  0.0641
16763SOL     OW51729   6.841   3.851   3.599 -0.4245 -0.1390  0.2773
16763SOL    HW151730   6.893   3.805   3.666 -0.0334 -0.3091 -0.1386
16763SOL    HW251731   6.796   3.921   3.647  1.5123  1.1132  0.3847
16764SOL     OW51732   2.791   3.494   4.812  0.0641 -0.0697 -0.5609
16764SOL    HW151733   2.860   3.428   4.810  0.8826  0.5878  2.1524
16764SOL    HW251734   2.836   3.576   4.828 -1.1066  0.9288 -2.0527
16765SOL     OW51735   6.986   1.755   0.805 -0.3302 -0.1078  0.0069
16765SOL    HW151736   6.908   1.803   0.833 -0.5367 -1.0981  1.2213
16765SOL    HW251737   6.981   1.756   0.710 -0.3393  2.2105 -0.0260
16766SOL     OW51738   7.127   0.204  10.455 -0.2523  0.5797 -0.4278
16766SOL    HW151739   7.160   0.184  10.543  0.0211  1.4155 -0.3343
16766SOL    HW251740   7.080   0.125  10.429  0.1805  0.0932  0.2248
16767SOL     OW51741   6.636   6.336  10.117 -0.2305  0.2991 -0.2844
16767SOL    HW151742   6.589   6.396  10.060  0.8696 -0.0378 -1.6240
16767SOL    HW251743   6.718   6.318  10.070 -0.7168 -2.6206 -0.1965
16768SOL     OW51744   1.497   1.424  10.446  0.3578 -0.4504  0.1427
16768SOL    HW151745   1.443   1.417  10.368  1.0340 -0.0650 -0.3690
16768SOL    HW251746   1.498   1.517  10.468  0.5029 -0.5019  0.3655
16769SOL     OW51747   4.709   4.400  10.279 -1.0003 -0.5759  0.9983
16769SOL    HW151748   4.748   4.482  10.249 -3.9712  0.7142  0.3520
16769SOL    HW251749   4.732   4.336  10.212 -1.4431  0.5584 -0.2717
16770SOL     OW51750   1.001   4.189   2.094 -0.4994  0.3285 -0.5742
16770SOL    HW151751   0.954   4.114   2.130 -0.7298  0.6647 -0.1649
16770SOL    HW251752   1.009   4.250   2.167  0.6839  0.2350 -0.6073
16771SOL     OW51753   0.411   4.053   9.606  0.0576  0.4575  0.2982
16771SOL    HW151754   0.412   4.032   9.513  0.8602  0.4416  0.2994
16771SOL    HW251755   0.319   4.055   9.630 -0.1238 -1.6828 -0.0081
16772SOL     OW51756   2.901   7.055   8.579 -0.0755 -0.1448  0.4397
16772SOL    HW151757   2.817   7.085   8.544 -0.4026 -0.7789  0.6604
16772SOL    HW251758   2.913   7.105   8.659  0.9451  1.7225 -0.8167
16773SOL     OW51759   0.493   6.566   4.031  0.0317  0.2735 -0.1156
16773SOL    HW151760   0.492   6.474   4.006  2.9539  0.0788  0.0626
16773SOL    HW251761   0.574   6.600   3.992  0.8846  1.8369  2.7461
16774SOL     OW51762   2.873   7.483  11.802 -0.5015  0.6838  0.1849
16774SOL    HW151763   2.835   7.469  11.889  1.0249  0.3106  0.8209
16774SOL    HW251764   2.856   7.401  11.755 -1.4766  0.9469  0.0476
16775SOL     OW51765   1.638   2.771   5.323 -0.3527 -0.0382 -0.2519
16775SOL    HW151766   1.549   2.803   5.337 -0.5430  0.0304 -1.5033
16775SOL    HW251767   1.684   2.788   5.405 -0.4731  3.3172 -0.7639
16776SOL     OW51768   4.449   2.813   0.889  0.4965 -0.0672 -0.1481
16776SOL    HW151769   4.422   2.723   0.877  0.0514  0.2760 -2.0903
16776SOL    HW251770   4.545   2.809   0.896  0.3672 -0.8114  1.5816
16777SOL     OW51771   0.236   6.467   6.294  0.0451 -0.6218 -0.2509
16777SOL    HW151772   0.199   6.379   6.299  1.3425 -1.1648  0.4361
16777SOL    HW251773   0.317   6.462   6.345 -0.3501  1.2424  0.6673
16778SOL     OW51774   4.000   4.323   8.812  0.0447 -0.1568 -0.0198
16778SOL    HW151775   3.979   4.403   8.860 -0.0645 -0.5418  0.5972
16778SOL    HW251776   3.916   4.293   8.778 -0.2734 -1.0601  1.4428
16779SOL     OW51777   0.588   1.711   7.525 -0.1373  0.2789 -0.2255
16779SOL    HW151778   0.610   1.804   7.533 -0.8523  0.3027  2.7951
16779SOL    HW251779   0.671   1.669   7.503  0.3778  1.5244 -0.7658
16780SOL     OW51780   1.726   1.742  11.707  0.5194  0.7351  0.2654
16780SOL    HW151781   1.789   1.786  11.650 -0.1669 -0.4397 -1.4535
16780SOL    HW251782   1.769   1.661  11.732  0.3143  0.6660  0.3955
16781SOL     OW51783   7.034   0.096   3.833 -0.4452  0.2864 -0.0989
16781SOL    HW151784   7.095   0.169   3.825  0.3678 -0.3265  0.3722
16781SOL    HW251785   7.089   0.020   3.849 -1.3140 -0.3412 -0.0160
16782SOL     OW51786   3.586   5.828   2.936  0.4552 -0.5489 -0.7367
16782SOL    HW151787   3.590   5.906   2.881  0.6387 -2.2150 -3.2317
16782SOL    HW251788   3.505   5.838   2.986  1.1333  1.8117  0.0566
16783SOL     OW51789   1.379   0.087   0.486 -0.5593  0.5576 -0.6638
16783SOL    HW151790   1.416   0.001   0.470 -0.4780  0.6056 -0.7326
16783SOL    HW251791   1.430   0.147   0.432  0.6969  0.9315  0.8611
16784SOL     OW51792   6.263   7.272   4.518  0.1268  0.2718 -0.7820
16784SOL    HW151793   6.169   7.262   4.506  0.0788 -2.6820  1.1067
16784SOL    HW251794   6.273   7.353   4.568 -1.4856  0.1327 -0.1782
16785SOL     OW51795   7.033   4.488   2.581 -0.2040 -0.1599 -0.1165
16785SOL    HW151796   7.017   4.424   2.512  1.9712 -1.4093  0.4379
16785SOL    HW251797   7.027   4.573   2.538 -1.5753 -0.7898 -1.2217
16786SOL     OW51798   6.539   4.163   8.959  0.0600  0.0493 -0.3717
16786SOL    HW151799   6.515   4.158   9.051  1.7106  1.2437  0.1612
16786SOL    HW251800   6.472   4.218   8.919 -1.1523 -1.1768 -0.1013
16787SOL     OW51801   6.520   2.243   9.823  0.2459 -0.1853  0.0900
16787SOL    HW151802   6.610   2.257   9.853  0.2584  0.7934 -0.3643
16787SOL    HW251803   6.481   2.188   9.890  1.2443 -0.8034  0.1879
16788SOL     OW51804   5.835   6.931   3.915  1.0135 -0.6125 -0.2217
16788SOL    HW151805   5.912   6.965   3.959  0.5982  0.9932 -0.6458
16788SOL    HW251806   5.762   6.981   3.953  0.3120 -1.3691 -0.5475
16789SOL     OW51807   0.272   2.295   7.169  0.4769 -0.6590  0.1433
16789SOL    HW151808   0.183   2.296   7.134  0.6462 -1.5178 -0.3465
16789SOL    HW251809   0.302   2.385   7.161 -0.1729 -0.4610 -0.1403
16790SOL     OW51810   3.755   3.039   1.693 -0.9568 -0.1989  0.2846
16790SOL    HW151811   3.811   2.986   1.636 -0.3099  0.5058  0.2403
16790SOL    HW251812   3.814   3.105   1.730 -1.6309  0.1558  0.7610
16791SOL     OW51813   6.869   1.702   5.367 -0.1875 -0.4040 -0.5635
16791SOL    HW151814   6.834   1.619   5.398 -0.8409 -0.4128 -1.2928
16791SOL    HW251815   6.900   1.747   5.446 -1.0825 -0.7581 -0.0024
16792SOL     OW51816   3.741   1.502   0.951  0.4721  0.6184 -0.7064
16792SOL    HW151817   3.756   1.460   0.866  1.1322  1.0413 -0.8045
16792SOL    HW251818   3.646   1.501   0.962  0.4493 -3.9590  0.8106
16793SOL     OW51819   4.168   4.640   3.181 -0.4697 -0.1267 -0.4222
16793SOL    HW151820   4.105   4.616   3.250  0.2893  0.5804  0.5478
16793SOL    HW251821   4.193   4.556   3.142 -1.1800 -0.5121 -0.0833
16794SOL     OW51822   5.915   5.479  11.563  0.0218  0.3051  0.0877
16794SOL    HW151823   5.979   5.432  11.510  1.2566  1.1036  0.8194
16794SOL    HW251824   5.968   5.537  11.619 -1.3700  1.6643  0.0711
16795SOL     OW51825   1.345   1.675   8.592  0.1782  0.7030  0.0146
16795SOL    HW151826   1.431   1.637   8.613  0.9552  0.6244 -2.9089
16795SOL    HW251827   1.340   1.754   8.645  1.8894  0.5174  0.5135
16796SOL     OW51828   6.398   2.167  10.602  0.1070  0.1849  0.4761
16796SOL    HW151829   6.395   2.233  10.532 -0.8391 -1.0386 -0.6783
16796SOL    HW251830   6.491   2.148  10.612  0.1997 -0.4260 -1.2561
16797SOL     OW51831   5.273   1.717   0.621  0.0641  0.5678  1.4742
16797SOL    HW151832   5.358   1.761   0.632 -0.1260  1.1923  0.5477
16797SOL    HW251833   5.296   1.632   0.582  0.1169  2.1667 -2.4879
16798SOL     OW51834   4.537   5.258   1.812 -0.0088  0.1944 -0.7418
16798SOL    HW151835   4.512   5.217   1.729  0.9542 -0.7318 -0.6018
16798SOL    HW251836   4.524   5.189   1.877  0.1280  0.6153 -0.2696
16799SOL     OW51837   2.910   4.747   7.342 -0.6628  0.8503  0.2216
16799SOL    HW151838   2.999   4.774   7.368 -1.2288  1.9163  1.1637
16799SOL    HW251839   2.899   4.661   7.382 -0.1174  0.8054  0.2844
16800SOL     OW51840   6.532   2.114   3.814  0.0613  0.3574  0.3875
16800SOL    HW151841   6.554   2.091   3.724 -0.1813 -0.1809  0.4595
16800SOL    HW251842   6.505   2.031   3.854 -0.0080  0.6234  0.9032
16801SOL     OW51843   4.689   0.206   9.439  0.3796  0.5888 -0.5222
16801SOL    HW151844   4.597   0.197   9.465  0.9138 -1.5858  0.8795
16801SOL    HW251845   4.685   0.225   9.345 -1.4849  0.3809 -0.5294
16802SOL     OW51846   5.814   3.607   1.290  0.1238  0.2640  0.2312
16802SOL    HW151847   5.811   3.520   1.331  1.2155 -0.3779 -0.9669
16802SOL    HW251848   5.907   3.622   1.274 -0.2544  0.0756 -2.7236
16803SOL     OW51849   6.245   4.840   1.911  0.2392 -0.2814 -0.2268
16803SOL    HW151850   6.208   4.928   1.898 -1.2397 -0.6840  0.9136
16803SOL    HW251851   6.339   4.851   1.898 -0.1724  0.8814 -2.9962
16804SOL     OW51852   0.473   0.930  11.981  0.1166  0.2491  0.0114
16804SOL    HW151853   0.423   0.897  11.906  1.0830  0.4248 -0.7360
16804SOL    HW251854   0.424   0.902  12.058 -0.7887 -0.1109 -0.6882
16805SOL     OW51855   5.310   2.002   2.588 -0.1565 -0.0803  0.7325
16805SOL    HW151856   5.341   2.087   2.555  2.1833 -0.3806  1.9823
16805SOL    HW251857   5.254   2.025   2.663 -0.2379  0.3612  0.5438
16806SOL     OW51858   0.193   2.445   1.102  0.0943 -0.8319 -0.5291
16806SOL    HW151859   0.101   2.461   1.123  0.3313  0.5224 -0.4503
16806SOL    HW251860   0.242   2.496   1.166  0.8716 -0.1496 -1.6315
16807SOL     OW51861   4.857   1.105   2.186 -0.0819  0.0114 -0.1160
16807SOL    HW151862   4.923   1.155   2.235 -0.9557  1.5615 -0.4369
16807SOL    HW251863   4.837   1.161   2.110 -1.9360 -0.2852  0.1102
16808SOL     OW51864   7.912   4.037   6.678 -0.1077 -0.0226 -0.3333
16808SOL    HW151865   7.881   4.095   6.608  0.2618 -0.6327 -1.0154
16808SOL    HW251866   8.007   4.042   6.672 -0.0130  1.2886  1.2845
16809SOL     OW51867   6.293   5.613   4.663  0.4264  0.2268 -0.5934
16809SOL    HW151868   6.198   5.612   4.668  0.3754  1.2146 -1.1006
16809SOL    HW251869   6.320   5.526   4.693 -0.7499 -0.9700 -2.7994
16810SOL     OW51870   1.553   1.075   2.351  1.0092 -0.7485 -0.1720
16810SOL    HW151871   1.556   1.137   2.423  0.2265  0.1649 -0.8971
16810SOL    HW251872   1.556   0.989   2.393  1.7289 -0.2298  0.8687
16811SOL     OW51873   2.389   7.359  12.042 -0.2767 -0.3963 -0.0126
16811SOL    HW151874   2.471   7.316  12.065 -0.0455 -0.8122 -1.4664
16811SOL    HW251875   2.323   7.317  12.097  0.4394 -0.2185  1.0024
16812SOL     OW51876   1.286   0.239  11.934  0.2785  0.8718 -0.4426
16812SOL    HW151877   1.227   0.182  11.885 -2.5338  2.3817  0.9626
16812SOL    HW251878   1.296   0.196  12.019  0.7348  0.9515 -0.4509
16813SOL     OW51879   0.461   1.611   0.098  0.1163 -0.1145  0.0697
16813SOL    HW151880   0.471   1.555   0.021  1.6023 -0.8648  0.7672
16813SOL    HW251881   0.550   1.623   0.131 -0.2823  1.8114  0.5553
16814SOL     OW51882   4.219   0.828   3.095  0.2361 -0.2812  0.8738
16814SOL    HW151883   4.253   0.739   3.082 -0.5263 -0.7836  2.2042
16814SOL    HW251884   4.212   0.864   3.006  0.2961 -1.6398  0.3022
16815SOL     OW51885   2.212   1.151   4.901  0.2787  0.2002 -0.6508
16815SOL    HW151886   2.186   1.241   4.882 -0.6477  0.1136  0.0924
16815SOL    HW251887   2.169   1.099   4.833  1.5649  0.3871 -1.6313
16816SOL     OW51888   6.693   3.579   2.412 -0.1827 -0.0937 -0.3975
16816SOL    HW151889   6.695   3.560   2.318 -0.6819 -1.2026 -0.1945
16816SOL    HW251890   6.781   3.612   2.432  0.1365 -0.4921 -1.1190
16817SOL     OW51891   5.769   4.137   4.345 -0.0119 -0.1380 -0.5060
16817SOL    HW151892   5.674   4.123   4.340 -0.1839  0.8268 -0.1729
16817SOL    HW251893   5.786   4.209   4.284  0.4907 -0.2346 -0.4863
16818SOL     OW51894   5.231   2.957   8.865 -0.4933 -0.0650  0.2109
16818SOL    HW151895   5.238   2.969   8.959  0.7959 -1.1051  0.2697
16818SOL    HW251896   5.272   3.035   8.827  0.6822 -0.5109  0.5317
16819SOL     OW51897   1.717   6.941   9.303  0.3564  0.1127  0.1480
16819SOL    HW151898   1.710   7.032   9.274  0.5744  0.8673  2.2903
16819SOL    HW251899   1.685   6.942   9.393  1.7449 -1.6546  0.7217
16820SOL     OW51900   3.803   6.073   9.680  0.1441  0.0996  0.6280
16820SOL    HW151901   3.749   6.113   9.612 -0.1338  3.4144  2.5795
16820SOL    HW251902   3.893   6.086   9.650  0.0243 -2.2496 -0.9657
16821SOL     OW51903   1.010   6.007   2.152  0.0207 -0.0052 -0.6688
16821SOL    HW151904   1.005   5.915   2.177  2.0863 -0.3589 -1.4127
16821SOL    HW251905   0.920   6.031   2.131 -0.4484 -2.0642 -1.1936
16822SOL     OW51906   2.769   7.795  11.902  0.2559 -0.0924 -0.4186
16822SOL    HW151907   2.713   7.721  11.877  1.2009 -1.1934  0.5861
16822SOL    HW251908   2.853   7.776  11.861  0.6712  0.1013  0.3226
16823SOL     OW51909   6.203   5.174   7.581  0.2774  0.6346  0.1821
16823SOL    HW151910   6.268   5.203   7.645  1.3722  0.0140 -0.6017
16823SOL    HW251911   6.135   5.241   7.583  1.6473  2.1036 -0.0008
16824SOL     OW51912   0.560   1.225   7.736 -0.0542 -0.5476  0.5413
16824SOL    HW151913   0.584   1.311   7.772 -0.6340 -0.3263  0.4011
16824SOL    HW251914   0.473   1.238   7.699  1.1246 -0.3174 -2.4386
16825SOL     OW51915   1.704   1.973   8.580  0.1950  0.0157  0.6929
16825SOL    HW151916   1.778   1.984   8.640  0.6643 -2.1733  0.6004
16825SOL    HW251917   1.743   1.981   8.493  0.6657 -2.5203  0.6075
16826SOL     OW51918   3.051   1.539   7.898 -0.3972  0.5890  0.1400
16826SOL    HW151919   3.076   1.548   7.990 -1.8879  0.7282  0.5529
16826SOL    HW251920   3.134   1.531   7.852  0.3947  0.8747  1.4554
16827SOL     OW51921   2.844   3.722   5.955  0.4853  0.7878  0.2030
16827SOL    HW151922   2.918   3.768   5.916  0.4048  0.1990 -0.6520
16827SOL    HW251923   2.860   3.630   5.937 -1.5395  0.7670 -1.9883
16828SOL     OW51924   7.004   5.042  10.384  0.2734  0.1343 -0.0793
16828SOL    HW151925   7.053   5.120  10.409  0.8888 -0.5569  0.9645
16828SOL    HW251926   6.923   5.046  10.435 -0.6144  1.0519 -1.4779
16829SOL     OW51927   6.671   1.384  11.486  0.0865  0.1653  0.6045
16829SOL    HW151928   6.626   1.464  11.461 -0.4567  0.4126  2.2795
16829SOL    HW251929   6.718   1.357  11.406 -0.9888  1.2598 -0.4358
16830SOL     OW51930   2.232   0.255   0.399  0.4718 -0.6680 -0.3025
16830SOL    HW151931   2.213   0.209   0.317  0.1349 -1.1728  0.0508
16830SOL    HW251932   2.258   0.343   0.372  0.0948 -0.7449 -0.9362
16831SOL     OW51933   4.728   5.897   3.867 -0.0798 -0.2683 -0.2221
16831SOL    HW151934   4.749   5.963   3.934 -0.8493 -0.8156  0.5896
16831SOL    HW251935   4.777   5.819   3.895 -0.2139 -0.4299 -0.4374
16832SOL     OW51936   5.113   2.076   8.847  0.4503  1.1376  0.2450
16832SOL    HW151937   5.181   2.009   8.839 -0.6759  0.0985 -0.9812
16832SOL    HW251938   5.056   2.045   8.917 -0.4157  0.4646 -0.7306
16833SOL     OW51939   5.016   2.093  11.283 -0.4783 -0.3507  0.0166
16833SOL    HW151940   5.053   2.019  11.332  0.6349  0.3578  0.3037
16833SOL    HW251941   4.950   2.130  11.341  1.4547  1.0355  1.4440
16834SOL     OW51942   5.314   0.063   6.901 -0.2728 -0.3314 -0.1284
16834SOL    HW151943   5.224   0.087   6.922 -0.8190 -1.5944 -0.9300
16834SOL    HW251944   5.323  -0.027   6.932  1.1081  0.1641  1.0295
16835SOL     OW51945   1.705   1.201   3.869 -0.3769  0.2441  0.5249
16835SOL    HW151946   1.629   1.255   3.847 -0.4010  0.2065  0.5147
16835SOL    HW251947   1.697   1.125   3.811 -0.2281  0.3307  0.3894
16836SOL     OW51948   4.870   6.290   1.826 -0.1604  0.1427  0.0241
16836SOL    HW151949   4.929   6.366   1.829  0.2163 -0.1539  1.9541
16836SOL    HW251950   4.814   6.306   1.750  1.1916  1.3625 -0.7832
16837SOL     OW51951   2.688   3.799   7.080  0.1392  0.7258  0.3573
16837SOL    HW151952   2.767   3.825   7.032 -0.1655  1.6579  0.3409
16837SOL    HW251953   2.718   3.783   7.170  0.6654 -0.7659 -0.0470
16838SOL     OW51954   2.208   2.386  10.285 -0.1819  0.5650 -0.1918
16838SOL    HW151955   2.280   2.351  10.338 -0.0135  1.1460 -0.0288
16838SOL    HW251956   2.206   2.329  10.208 -0.1276  0.0015  0.2173
16839SOL     OW51957   6.635   6.192   7.679  0.3531  0.1362  0.4111
16839SOL    HW151958   6.703   6.184   7.613 -0.8864 -0.4138 -0.8630
16839SOL    HW251959   6.681   6.217   7.759  1.9559  0.3189 -0.5330
16840SOL     OW51960   7.845   0.425   2.016 -0.1560 -0.4855 -0.5370
16840SOL    HW151961   7.772   0.414   2.077  1.2303 -1.1591  1.0665
16840SOL    HW251962   7.823   0.504   1.966 -1.2221  0.2306  1.0041
16841SOL     OW51963   5.926   5.583   3.546 -0.2105 -0.1133 -0.0769
16841SOL    HW151964   6.004   5.529   3.560 -0.4836 -0.5255 -0.1216
16841SOL    HW251965   5.899   5.565   3.456  0.9789  1.8025 -0.8784
16842SOL     OW51966   3.924   1.608   1.440  0.7823 -0.3393  0.6275
16842SOL    HW151967   4.006   1.649   1.467  0.6141  0.0883  0.4842
16842SOL    HW251968   3.928   1.603   1.345  0.7340 -0.5163  0.6329
16843SOL     OW51969   0.700   3.569   9.243 -0.0254 -0.2560 -0.5559
16843SOL    HW151970   0.698   3.661   9.214  2.1928 -0.1503 -0.5023
16843SOL    HW251971   0.769   3.529   9.191  0.5146 -1.3538  0.9454
16844SOL     OW51972   7.174   6.845   1.396 -0.5143 -0.1526  0.7429
16844SOL    HW151973   7.108   6.796   1.445 -0.7115 -0.1732  0.4567
16844SOL    HW251974   7.179   6.801   1.311 -1.3702  0.8678  0.1286
16845SOL     OW51975   5.040   1.366   1.052 -0.0300 -0.2161  0.3069
16845SOL    HW151976   5.091   1.439   1.016  0.4624 -0.0554  1.3231
16845SOL    HW251977   5.104   1.298   1.071 -0.3860 -0.5912  0.1769
16846SOL     OW51978   2.634   5.732   7.295 -0.1631  0.1148 -0.0267
16846SOL    HW151979   2.642   5.687   7.211  0.0238  0.3341 -0.1300
16846SOL    HW251980   2.702   5.800   7.292  0.7934 -0.7705  0.8809
16847SOL     OW51981   5.305   5.732   6.966  0.3850 -0.6004  0.1011
16847SOL    HW151982   5.330   5.760   7.054  1.3643 -1.7142  0.1966
16847SOL    HW251983   5.239   5.664   6.980 -2.5288  1.9426 -0.1406
16848SOL     OW51984   3.232   3.839   2.744 -0.1924 -0.2961  0.4919
16848SOL    HW151985   3.152   3.887   2.725  0.1030  0.5373  1.2638
16848SOL    HW251986   3.232   3.830   2.840  0.4071 -0.6950  0.4624
16849SOL     OW51987   2.261   2.075   1.045  0.0167 -0.0912 -0.0578
16849SOL    HW151988   2.169   2.098   1.057 -0.0488  0.0118 -0.7122
16849SOL    HW251989   2.303   2.102   1.126 -0.5172 -0.0743  0.2188
16850SOL     OW51990   0.727   1.372  12.112 -0.3645 -0.2186 -0.1283
16850SOL    HW151991   0.808   1.335  12.147 -0.2529  0.1682  0.0281
16850SOL    HW251992   0.668   1.297  12.103 -0.8181 -0.1883  2.0199
16851SOL     OW51993   6.962   1.171   1.845 -0.0082 -0.1099 -0.4619
16851SOL    HW151994   6.910   1.098   1.878 -2.0264  2.2588  2.1329
16851SOL    HW251995   6.927   1.190   1.758 -1.5529 -0.3890  0.0744
16852SOL     OW51996   2.052   1.045   7.782  0.2755 -0.4644  0.1368
16852SOL    HW151997   2.117   1.104   7.744 -0.6543  0.9164  0.5741
16852SOL    HW251998   2.004   1.010   7.707 -0.5331  1.0255 -0.0883
16853SOL     OW51999   1.652   3.308  12.081  0.4980 -0.5629  0.7149
16853SOL    HW152000   1.691   3.241  12.025 -1.2977 -0.7109 -0.4635
16853SOL    HW252001   1.660   3.389  12.031  0.4606 -0.3551  1.0419
16854SOL     OW52002   1.076   1.982   4.569 -0.1671 -0.0220  0.0553
16854SOL    HW152003   0.988   2.002   4.538 -0.0914 -0.0761 -0.1933
16854SOL    HW252004   1.063   1.906   4.627 -0.1086 -0.9184 -1.0711
16855SOL     OW52005   6.576   0.175   6.420  0.7355  0.0789 -0.4348
16855SOL    HW152006   6.519   0.216   6.484 -1.0970 -0.6931 -1.4994
16855SOL    HW252007   6.598   0.245   6.359 -0.5376  0.0139 -0.9903
16856SOL     OW52008   7.359   0.023   3.214 -0.0351  0.4666 -0.5882
16856SOL    HW152009   7.429   0.089   3.216  0.7679 -0.3437 -1.1391
16856SOL    HW252010   7.395  -0.052   3.261 -1.7496  1.1229  1.9850
16857SOL     OW52011   6.260   7.519   3.527  0.1699  0.2718 -0.7326
16857SOL    HW152012   6.349   7.541   3.555  0.0431  2.0049 -1.5166
16857SOL    HW252013   6.267   7.509   3.432 -0.7014  1.8249 -0.9867
16858SOL     OW52014   2.371   3.136   6.665  0.1869 -0.9861  0.3594
16858SOL    HW152015   2.386   3.172   6.578  0.4703 -0.6496  0.5439
16858SOL    HW252016   2.415   3.051   6.663  1.0987 -0.5319  0.4975
16859SOL     OW52017   2.337   7.473  11.457  0.0699 -0.5374 -0.4034
16859SOL    HW152018   2.352   7.440  11.369 -2.2181  0.4705 -1.2778
16859SOL    HW252019   2.359   7.566  11.451  1.0210 -0.6941  0.4417
16860SOL     OW52020   6.211   6.625   2.549 -0.0188 -0.5743  0.5566
16860SOL    HW152021   6.223   6.613   2.643 -0.5138 -1.1639  0.5496
16860SOL    HW252022   6.138   6.568   2.526 -0.1141 -0.1958 -0.1320
16861SOL     OW52023   5.528   6.527   6.066 -0.0826 -0.0636  0.2541
16861SOL    HW152024   5.478   6.527   5.984 -0.0460 -0.8661  0.2255
16861SOL    HW252025   5.530   6.619   6.093 -0.2101  0.1907 -0.5756
16862SOL     OW52026   1.319   2.272  10.685  0.2843  0.0394 -0.9441
16862SOL    HW152027   1.389   2.326  10.648  1.3886 -1.0016 -0.4466
16862SOL    HW252028   1.248   2.279  10.622  0.1704  2.4839 -0.6387
16863SOL     OW52029   2.457   3.035   8.402 -0.3594  0.3723 -0.0146
16863SOL    HW152030   2.386   2.980   8.370  0.7667 -0.7066 -0.7796
16863SOL    HW252031   2.476   3.095   8.330 -0.5587  0.7282  0.2274
16864SOL     OW52032   4.560   6.299   1.411  0.3622  0.7291 -0.1565
16864SOL    HW152033   4.566   6.383   1.365  1.3989 -0.5797 -2.5737
16864SOL    HW252034   4.540   6.235   1.342 -2.0621 -0.8627  1.8345
16865SOL     OW52035   4.913   3.681   5.573  0.7460  0.0739  0.3004
16865SOL    HW152036   4.999   3.649   5.545  0.5117 -0.7331  0.4848
16865SOL    HW252037   4.909   3.661   5.667  0.1496 -0.3739  0.1860
16866SOL     OW52038   3.648   2.213   0.897 -0.2604  0.5552 -0.0570
16866SOL    HW152039   3.721   2.238   0.839  0.0720 -0.1464  0.0403
16866SOL    HW252040   3.586   2.168   0.839  0.9369 -1.8632  0.3923
16867SOL     OW52041   5.939   0.618   7.582 -0.0500 -0.0892 -0.2443
16867SOL    HW152042   5.995   0.617   7.660  1.7381 -1.4725 -1.4419
16867SOL    HW252043   5.926   0.525   7.562 -1.7110  0.2364 -0.7669
16868SOL     OW52044   3.079   5.357   4.510  0.1720  0.1963  0.0167
16868SOL    HW152045   3.134   5.401   4.574  1.1332  0.8970 -1.2423
16868SOL    HW252046   3.032   5.428   4.465 -0.2525 -0.2515 -0.2623
16869SOL     OW52047   1.159   0.777   2.892  0.2515 -0.3901  0.1363
16869SOL    HW152048   1.110   0.695   2.886 -0.3830  0.0626 -1.1473
16869SOL    HW252049   1.239   0.762   2.841  0.0200 -0.1394 -0.3059
16870SOL     OW52050   6.240   0.888  11.150 -0.0615 -0.0513  0.6987
16870SOL    HW152051   6.205   0.862  11.065 -2.0996 -0.0573  1.4936
16870SOL    HW252052   6.172   0.865  11.212  1.1498  0.4833  2.2913
16871SOL     OW52053   5.899   6.607   0.737 -0.5382  0.1564  0.5329
16871SOL    HW152054   5.962   6.536   0.739  0.1528  0.5847 -2.1545
16871SOL    HW252055   5.950   6.686   0.757 -0.2019  0.4535 -1.2792
16872SOL     OW52056   1.367   1.702   6.356 -0.2318 -0.5457  0.0577
16872SOL    HW152057   1.343   1.781   6.404  1.7308  0.1104  0.0642
16872SOL    HW252058   1.293   1.685   6.298 -1.2375  0.5255  0.9760
16873SOL     OW52059   0.632   7.017   6.617 -0.3739 -0.1990 -0.3015
16873SOL    HW152060   0.598   7.082   6.679  0.3491 -0.7496  0.7102
16873SOL    HW252061   0.590   6.935   6.644 -0.6810 -0.2981 -1.0695
16874SOL     OW52062   7.289   0.032   9.935  0.4346 -0.6794  0.1322
16874SOL    HW152063   7.237   0.112   9.927 -0.2492 -1.1736 -0.4258
16874SOL    HW252064   7.278   0.006  10.026 -0.3145 -0.7902  0.0137
16875SOL     OW52065   6.514   3.795   6.071 -0.5243  0.0058 -0.1730
16875SOL    HW152066   6.505   3.737   6.147 -1.6631  0.2868 -0.0854
16875SOL    HW252067   6.533   3.736   5.998  0.7194 -0.2582  0.3246
16876SOL     OW52068   0.746   1.402   8.295  0.4322 -0.0553 -0.1971
16876SOL    HW152069   0.774   1.321   8.338 -1.2299 -0.1572  0.7840
16876SOL    HW252070   0.765   1.471   8.358  2.6327  0.5068 -1.3604
16877SOL     OW52071   5.299   6.281   6.485 -0.5910  0.6174 -0.6235
16877SOL    HW152072   5.381   6.258   6.440 -0.3586  2.7974 -1.4883
16877SOL    HW252073   5.233   6.278   6.416 -0.7237  1.4299 -0.5435
16878SOL     OW52074   1.482   0.630   6.865 -0.0719  0.3037  0.6841
16878SOL    HW152075   1.511   0.590   6.946 -1.1584 -0.5986  0.6458
16878SOL    HW252076   1.390   0.605   6.856 -0.8709  2.8788  0.7004
16879SOL     OW52077   5.487   4.136  11.763  0.6549 -0.1142 -0.1973
16879SOL    HW152078   5.579   4.161  11.760  0.4913  0.7650  1.0888
16879SOL    HW252079   5.473   4.106  11.853 -0.4144  0.2185 -0.2361
16880SOL     OW52080   0.761   6.301   9.917  0.1497 -0.0794  0.5343
16880SOL    HW152081   0.685   6.326   9.866 -0.8093 -0.4065  1.7664
16880SOL    HW252082   0.816   6.251   9.856 -1.0945 -0.7095 -0.1002
16881SOL     OW52083   2.512   0.401   9.465  0.6957 -0.4754 -0.1498
16881SOL    HW152084   2.494   0.472   9.403  3.0847  0.4649  0.1638
16881SOL    HW252085   2.426   0.382   9.504 -0.4086  0.6336 -1.8894
16882SOL     OW52086   3.886   1.679   3.591  0.0355 -0.2236  0.1120
16882SOL    HW152087   3.869   1.700   3.683 -0.1061 -0.1094  0.0598
16882SOL    HW252088   3.891   1.764   3.547 -0.4352 -0.2869 -0.0796
16883SOL     OW52089   5.778   5.547  10.842  0.6156 -0.5926 -0.2905
16883SOL    HW152090   5.819   5.498  10.914  0.0005 -2.4513 -1.1191
16883SOL    HW252091   5.730   5.618  10.884  1.1670 -0.9882  1.0351
16884SOL     OW52092   4.485   3.524  10.764 -0.6039  0.7620 -0.2662
16884SOL    HW152093   4.415   3.513  10.700  0.1088  2.2764 -1.3652
16884SOL    HW252094   4.516   3.436  10.781  0.7872  0.4061 -3.8836
16885SOL     OW52095   3.814   5.045   2.982  0.1036  0.0875  0.1247
16885SOL    HW152096   3.766   5.016   2.905 -0.3096  0.5867  0.1837
16885SOL    HW252097   3.866   5.120   2.951  1.1986 -0.7241 -0.0438
16886SOL     OW52098   4.239   5.693   8.010  0.2772  0.4794  0.4148
16886SOL    HW152099   4.308   5.675   7.946 -1.4882 -2.6083 -0.8415
16886SOL    HW252100   4.273   5.657   8.092  0.6887  0.2223  0.1327
16887SOL     OW52101   2.658   4.962   5.415  0.4871  0.4163  0.2822
16887SOL    HW152102   2.657   4.876   5.372 -1.7364  0.6719 -0.3053
16887SOL    HW252103   2.718   5.015   5.362 -1.6320  0.5134 -2.1991
16888SOL     OW52104   5.663   1.650  11.856 -0.4388 -0.1984  0.4465
16888SOL    HW152105   5.610   1.585  11.810 -0.2542  0.7408 -1.1794
16888SOL    HW252106   5.636   1.643  11.948 -1.9406 -1.1066 -0.0354
16889SOL     OW52107   6.022   6.963   5.563  0.3743 -1.0025 -0.3802
16889SOL    HW152108   5.988   6.992   5.648  1.2600  1.7615 -0.8636
16889SOL    HW252109   5.970   6.886   5.541 -2.7114  0.5733  0.8024
16890SOL     OW52110   2.391   6.852   1.105 -0.3942  0.1894  0.5968
16890SOL    HW152111   2.463   6.899   1.065  0.6704 -0.9864  1.0386
16890SOL    HW252112   2.328   6.839   1.034  1.2734 -1.5340 -0.6972
16891SOL     OW52113   3.881   0.834   3.968 -0.1701 -0.2230 -0.4351
16891SOL    HW152114   3.850   0.743   3.978 -1.5448  0.4257  1.9641
16891SOL    HW252115   3.921   0.855   4.052 -0.9226  1.7602 -0.5377
16892SOL     OW52116   1.437   3.876   9.360 -0.1047 -0.3328  0.0326
16892SOL    HW152117   1.350   3.915   9.357 -0.8551 -1.6675  1.9506
16892SOL    HW252118   1.421   3.782   9.348  1.2877 -0.4145 -1.3957
16893SOL     OW52119   4.052   7.067   9.100  0.0663 -0.5894  0.1286
16893SOL    HW152120   4.043   7.140   9.161 -1.1327 -0.3754 -0.2813
16893SOL    HW252121   4.018   6.992   9.148 -0.0729 -0.5847  0.0401
16894SOL     OW52122   7.731   2.869  10.707 -0.1788  0.5010  0.0061
16894SOL    HW152123   7.679   2.891  10.629 -0.4177 -0.8951 -0.2640
16894SOL    HW252124   7.822   2.883  10.680 -0.2195 -0.5485 -0.7592
16895SOL     OW52125   0.199   2.124   1.886  0.2333  0.0843  0.1007
16895SOL    HW152126   0.175   2.111   1.978  2.2138 -0.6982  0.5581
16895SOL    HW252127   0.133   2.074   1.837 -0.5733  0.1281  1.1098
16896SOL     OW52128   5.140   2.658   2.386 -0.5798 -0.1765 -0.2391
16896SOL    HW152129   5.202   2.591   2.355 -0.2476  0.1183 -0.2219
16896SOL    HW252130   5.124   2.634   2.478 -1.4388 -0.9556 -0.5826
16897SOL     OW52131   7.381   1.828  11.161 -0.0450 -0.4146 -0.2049
16897SOL    HW152132   7.449   1.798  11.100  0.6218  1.5759 -0.4953
16897SOL    HW252133   7.424   1.895  11.214 -1.1647 -0.7680  1.2006
16898SOL     OW52134   4.613   5.772  10.125 -0.1042  0.3264  0.1367
16898SOL    HW152135   4.521   5.750  10.111  0.2774 -2.2860  1.1517
16898SOL    HW252136   4.625   5.767  10.220  1.1060  0.5624  0.0118
16899SOL     OW52137   5.356   0.936  12.210  0.9251 -0.2984 -0.0872
16899SOL    HW152138   5.365   0.841  12.217 -0.6538 -0.5226 -0.5653
16899SOL    HW252139   5.283   0.957  12.269  0.7930  0.5143 -0.5289
16900SOL     OW52140   4.410   6.218   8.946  0.2752  0.0347  0.2168
16900SOL    HW152141   4.421   6.283   8.876 -1.0925 -1.6241 -1.6397
16900SOL    HW252142   4.496   6.212   8.987  0.9092  1.6423 -0.7905
16901SOL     OW52143   5.341   6.201   5.349 -0.5399  0.3952  0.1367
16901SOL    HW152144   5.416   6.232   5.402 -1.4640  1.9540  0.6001
16901SOL    HW252145   5.324   6.272   5.288 -1.1821 -0.2773 -0.4845
16902SOL     OW52146   2.889   0.037   5.491 -0.1826 -0.1915 -0.0157
16902SOL    HW152147   2.823   0.107   5.495 -0.1363 -0.1166 -0.4690
16902SOL    HW252148   2.924   0.032   5.580  1.1303  1.6187 -0.3730
16903SOL     OW52149   1.820   7.847   7.681  0.4752  0.0644  0.1036
16903SOL    HW152150   1.768   7.767   7.670  3.4372 -2.0955  0.5398
16903SOL    HW252151   1.813   7.891   7.596 -1.0298 -0.7471 -0.2353
16904SOL     OW52152   0.315   7.004  11.205 -0.3377  0.5454 -0.5011
16904SOL    HW152153   0.220   7.002  11.217 -0.3928 -0.3729 -1.0519
16904SOL    HW252154   0.340   7.093  11.230 -1.2044  0.4890  0.6605
16905SOL     OW52155   1.845   7.237   2.921 -0.2817  0.3199  0.2879
16905SOL    HW152156   1.834   7.275   2.834  0.7390 -1.8345 -0.8745
16905SOL    HW252157   1.938   7.215   2.926  0.0100  1.7562  2.5788
16906SOL     OW52158   6.317   6.453   6.746  0.5999  0.0190 -1.2671
16906SOL    HW152159   6.325   6.546   6.725  0.4440  0.1436 -0.7699
16906SOL    HW252160   6.249   6.421   6.687  0.1232  0.3822 -0.9135
16907SOL     OW52161   1.964   2.311   3.389  0.0994 -0.1330  0.7056
16907SOL    HW152162   1.950   2.255   3.312 -0.3614 -0.9854  1.3984
16907SOL    HW252163   1.919   2.393   3.368  1.1193  0.1564 -0.4878
16908SOL     OW52164   1.233   6.911   4.356  0.0312 -0.2181  0.4330
16908SOL    HW152165   1.207   6.950   4.273  0.1517 -1.4431 -0.1987
16908SOL    HW252166   1.198   6.823   4.354 -0.8705  0.0502  2.1539
16909SOL     OW52167   7.386   3.489  11.588 -0.3759  0.1729  0.0842
16909SOL    HW152168   7.347   3.424  11.529  0.7035  1.2720 -1.9196
16909SOL    HW252169   7.395   3.567  11.535  2.4346  0.6602  1.1394
16910SOL     OW52170   0.907   2.394  11.071 -0.0279 -0.1357 -0.2998
16910SOL    HW152171   0.984   2.340  11.089 -0.2833 -0.9096 -1.4296
16910SOL    HW252172   0.842   2.363  11.134  1.3905  2.5389  2.7358
16911SOL     OW52173   2.432   0.154   4.834  0.1216 -0.0517  0.3008
16911SOL    HW152174   2.420   0.079   4.775  1.4686 -1.3670  1.5969
16911SOL    HW252175   2.386   0.226   4.791 -2.9327 -2.0340 -0.1246
16912SOL     OW52176   4.641   3.761   5.379 -0.4484  0.0826  0.1182
16912SOL    HW152177   4.684   3.809   5.309  1.2230  2.1712  2.3941
16912SOL    HW252178   4.565   3.815   5.402  1.1125  1.5416  2.2957
16913SOL     OW52179   7.891   7.015   7.701 -0.6126 -0.2493  0.6256
16913SOL    HW152180   7.825   7.069   7.657 -0.8504  0.0239  1.2913
16913SOL    HW252181   7.942   7.078   7.753  0.7959 -0.3235 -0.6086
16914SOL     OW52182   7.220   2.365  11.644 -0.2099  0.3441  0.1871
16914SOL    HW152183   7.221   2.342  11.551  0.3572  3.3504 -0.6540
16914SOL    HW252184   7.145   2.317  11.679 -0.0732 -1.3484 -1.6409
16915SOL     OW52185   3.305   7.854   1.886 -0.2276  0.3675 -0.4244
16915SOL    HW152186   3.312   7.842   1.791 -0.2915 -0.9574 -0.2761
16915SOL    HW252187   3.381   7.908   1.909 -0.5518  1.2236 -1.2972
16916SOL     OW52188   5.886   7.782  10.648 -0.2105  0.0198  0.6600
16916SOL    HW152189   5.857   7.691  10.648 -0.6258  0.0973 -1.8204
16916SOL    HW252190   5.816   7.830  10.605  0.5681  1.3374  0.7969
16917SOL     OW52191   3.822   7.152   5.895 -0.3740  0.3377 -0.0245
16917SOL    HW152192   3.802   7.224   5.955 -0.5906 -0.6263  1.0985
16917SOL    HW252193   3.903   7.114   5.929  0.2029  0.5652 -1.1041
16918SOL     OW52194   1.302   0.890   7.071 -0.2699  0.0165 -0.5218
16918SOL    HW152195   1.213   0.861   7.053 -0.5141 -0.4606  1.2722
16918SOL    HW252196   1.347   0.813   7.106 -0.0561  0.9760  1.4471
16919SOL     OW52197   7.094   1.383   4.153 -0.4679 -0.2549  0.3930
16919SOL    HW152198   7.006   1.378   4.116 -0.9405 -0.7690  1.5355
16919SOL    HW252199   7.106   1.299   4.198  0.3501  0.0693  0.8063
16920SOL     OW52200   7.383   5.881   2.910 -0.0803 -0.0600 -0.5337
16920SOL    HW152201   7.457   5.941   2.917  0.5684 -0.9354  0.4632
16920SOL    HW252202   7.308   5.931   2.942  0.8336 -0.3883  2.3618
16921SOL     OW52203   3.816   1.428  10.672  0.5384  0.1728 -0.2674
16921SOL    HW152204   3.760   1.408  10.597 -0.2350 -1.6496  0.7467
16921SOL    HW252205   3.854   1.513  10.651  0.5334 -0.3784 -2.8323
16922SOL     OW52206   7.637   2.653   8.621 -0.2361 -0.2308  0.1024
16922SOL    HW152207   7.630   2.709   8.699 -1.0792  0.3328 -0.3722
16922SOL    HW252208   7.632   2.564   8.656 -0.7886  0.0203  0.6933
16923SOL     OW52209   0.862   0.392   3.251 -0.4395  0.3247  0.1529
16923SOL    HW152210   0.956   0.379   3.234 -0.6283  0.3253 -1.0348
16923SOL    HW252211   0.857   0.477   3.295  0.1433  0.1801  0.5086
16924SOL     OW52212   4.638   2.654   4.469  0.0417 -0.6382  0.4832
16924SOL    HW152213   4.695   2.730   4.455  0.0620 -0.9245 -1.3052
16924SOL    HW252214   4.691   2.594   4.522  1.6560 -1.0623 -1.4474
16925SOL     OW52215   1.096   7.031   2.123 -0.4698 -0.2315 -0.0585
16925SOL    HW152216   1.093   6.946   2.168  0.4139 -0.4520 -0.3890
16925SOL    HW252217   1.184   7.035   2.086 -1.0584  0.0790 -1.5138
16926SOL     OW52218   1.793   1.947   3.442  0.8550 -0.0629 -0.2349
16926SOL    HW152219   1.874   1.909   3.476 -0.0298 -1.0676  0.8572
16926SOL    HW252220   1.754   1.876   3.392  0.9939  0.6607 -1.3985
16927SOL     OW52221   6.539   5.703  11.757 -0.1400  0.2039  0.7860
16927SOL    HW152222   6.622   5.704  11.709 -0.7027  0.7453 -0.1935
16927SOL    HW252223   6.528   5.612  11.783 -0.5775 -0.4422 -1.4733
16928SOL     OW52224   1.138   4.813  11.997  0.0770  0.2486  0.3123
16928SOL    HW152225   1.197   4.859  11.938  1.0121  0.1553  1.1296
16928SOL    HW252226   1.064   4.872  12.008 -0.0948  0.2754 -0.9125
16929SOL     OW52227   1.150   3.488   1.619  0.2138 -0.4105  0.2068
16929SOL    HW152228   1.156   3.532   1.705 -0.6461 -0.5008  0.3216
16929SOL    HW252229   1.073   3.528   1.578  1.0124  0.1177 -0.8146
16930SOL     OW52230   7.891   5.986   4.239 -0.3768 -0.2563  0.0248
16930SOL    HW152231   7.810   6.023   4.205  0.4346  0.6300 -1.0224
16930SOL    HW252232   7.954   5.996   4.167  0.0450 -3.2255 -0.1695
16931SOL     OW52233   3.500   4.687   0.410 -0.6113 -0.3244 -0.1031
16931SOL    HW152234   3.523   4.716   0.499  1.2352 -0.1640 -0.5743
16931SOL    HW252235   3.550   4.746   0.353 -0.4017 -1.5094 -1.1959
16932SOL     OW52236   2.125   1.755  11.938 -0.0464 -0.2607  0.0242
16932SOL    HW152237   2.105   1.741  12.031 -0.9320 -2.5851 -0.4577
16932SOL    HW252238   2.152   1.669  11.906 -2.3538 -0.2055 -2.4596
16933SOL     OW52239   5.406   7.838   2.285  0.1719  0.0765  0.0987
16933SOL    HW152240   5.378   7.747   2.297 -1.7443  0.3283 -1.8612
16933SOL    HW252241   5.497   7.831   2.256 -0.1556 -1.2761 -0.6928
16934SOL     OW52242   2.061   3.752   8.198 -0.5781  0.0502 -0.5200
16934SOL    HW152243   2.089   3.662   8.208 -1.1868 -0.1814 -0.8049
16934SOL    HW252244   2.135   3.797   8.158 -0.9381 -0.7726 -2.2205
16935SOL     OW52245   6.332   6.673   9.425  0.3219 -0.2428 -0.0718
16935SOL    HW152246   6.369   6.717   9.502 -0.6278  0.5967 -0.0825
16935SOL    HW252247   6.394   6.603   9.407  0.0373 -1.1302  2.0883
16936SOL     OW52248   4.344   1.585   7.281  0.0491  0.1235  0.2534
16936SOL    HW152249   4.295   1.557   7.203  0.9601  1.6876 -0.9334
16936SOL    HW252250   4.435   1.592   7.251  0.3200  1.3342  1.2761
16937SOL     OW52251   0.469   5.508   6.226  0.2704  0.1375  0.1765
16937SOL    HW152252   0.495   5.568   6.295  0.3070  0.9033 -0.4947
16937SOL    HW252253   0.552   5.473   6.192  0.4287  1.6002 -1.0877
16938SOL     OW52254   0.645   5.222   7.871  0.4887 -0.5670 -0.2670
16938SOL    HW152255   0.711   5.194   7.807  0.5927  1.7442 -1.3085
16938SOL    HW252256   0.688   5.293   7.919 -1.1433  0.9840 -0.9546
16939SOL     OW52257   0.350   6.972   8.374 -0.1804 -0.5838 -0.5162
16939SOL    HW152258   0.292   6.911   8.328  0.0954  0.0493 -1.7705
16939SOL    HW252259   0.437   6.935   8.364 -0.1226 -0.4553 -0.4903
16940SOL     OW52260   1.104   0.489   1.289  0.2765 -0.1526  1.0152
16940SOL    HW152261   1.117   0.446   1.374 -0.1163 -0.4267  0.9373
16940SOL    HW252262   1.100   0.416   1.226 -1.2776 -0.0710  0.9834
16941SOL     OW52263   4.953   0.785   3.670  0.0488 -0.4970  0.0274
16941SOL    HW152264   4.949   0.785   3.574 -0.6738  0.7732  0.0338
16941SOL    HW252265   4.904   0.863   3.696  0.4169 -0.7059  1.4313
16942SOL     OW52266   6.381   6.497  12.422  0.3799  0.0093 -0.6251
16942SOL    HW152267   6.358   6.473  12.332  0.8293 -1.3342 -0.4029
16942SOL    HW252268   6.469   6.460  12.435  0.2055 -0.0548  0.4475
16943SOL     OW52269   6.234   5.605   7.997  0.3326  0.5015  0.0844
16943SOL    HW152270   6.224   5.575   7.907  0.4832  1.4192 -0.2444
16943SOL    HW252271   6.172   5.551   8.047  0.5830 -0.3363 -0.4846
16944SOL     OW52272   4.289   3.855  10.117  0.1008 -0.6784 -0.8726
16944SOL    HW152273   4.357   3.838  10.052  0.4601  0.4542 -0.8070
16944SOL    HW252274   4.315   3.936  10.159 -0.9186 -0.6025 -0.3511
16945SOL     OW52275   0.630   7.499   1.688 -0.0494  0.2240  0.1103
16945SOL    HW152276   0.599   7.589   1.683  1.1010  0.6304  0.0251
16945SOL    HW252277   0.676   7.494   1.772  1.6878  0.3351 -0.7786
16946SOL     OW52278   4.067   0.430   8.940  0.0677 -0.4261 -0.1737
16946SOL    HW152279   4.095   0.443   9.031  0.9933  0.0743 -0.5103
16946SOL    HW252280   4.094   0.340   8.919  0.5001 -0.2995 -0.1701
16947SOL     OW52281   6.791   3.116   6.334  0.1274 -0.6356  0.2234
16947SOL    HW152282   6.830   3.202   6.348 -0.4050 -0.5833  1.5527
16947SOL    HW252283   6.857   3.054   6.364 -0.1165 -0.6202  0.7966
16948SOL     OW52284   0.361   2.561   8.711  0.8688 -0.4146 -0.3961
16948SOL    HW152285   0.330   2.510   8.786 -1.1550  0.1329 -0.8112
16948SOL    HW252286   0.340   2.508   8.635  0.8230  0.0386 -0.7022
16949SOL     OW52287   7.198   6.991  10.795  0.0460  0.1967 -0.2267
16949SOL    HW152288   7.231   7.016  10.881 -0.4324 -0.5490  0.1887
16949SOL    HW252289   7.112   6.953  10.813  0.1156 -0.3461 -0.9916
16950SOL     OW52290   2.710   4.633   2.007 -0.4154 -0.7461 -0.0641
16950SOL    HW152291   2.652   4.563   1.976 -0.3911 -0.3754 -0.9694
16950SOL    HW252292   2.782   4.586   2.051  0.1627 -1.3711 -1.5950
16951SOL     OW52293   4.917   4.486   9.735  0.2707  0.2417  0.4737
16951SOL    HW152294   4.948   4.505   9.646 -0.1179 -0.9002  0.0727
16951SOL    HW252295   4.874   4.400   9.727 -1.2510  0.8748  1.4008
16952SOL     OW52296   2.619   6.084  12.000 -0.0659 -0.5239 -0.3645
16952SOL    HW152297   2.606   6.008  12.056 -1.8052  0.2919  0.4584
16952SOL    HW252298   2.573   6.063  11.919 -1.3315 -0.0649  0.1964
16953SOL     OW52299   7.153   0.827   1.238 -0.4916  0.3646  0.1075
16953SOL    HW152300   7.100   0.799   1.313 -1.2844  0.4878 -0.3926
16953SOL    HW252301   7.225   0.877   1.277  0.4467 -1.5733  0.9466
16954SOL     OW52302   4.633   7.578   0.943  0.2533 -0.0165  0.4877
16954SOL    HW152303   4.663   7.668   0.932 -0.9864  0.2359 -1.1543
16954SOL    HW252304   4.557   7.570   0.886 -1.5712 -1.2183  2.8769
16955SOL     OW52305   6.723   3.024   4.782  0.6617 -0.3474  0.2717
16955SOL    HW152306   6.809   2.983   4.790  0.6334 -0.6810 -0.9275
16955SOL    HW252307   6.715   3.046   4.688 -0.7886 -0.8328  0.2508
16956SOL     OW52308   0.273   1.866   6.207  0.2173 -0.2908 -0.0398
16956SOL    HW152309   0.277   1.853   6.302  0.1269  0.1336  0.0285
16956SOL    HW252310   0.265   1.961   6.197  0.7304 -0.2948 -0.4921
16957SOL     OW52311   5.252   1.391   4.449 -0.0302 -0.4262  0.1652
16957SOL    HW152312   5.196   1.443   4.392 -1.5396 -1.5504  0.5296
16957SOL    HW252313   5.193   1.323   4.484  0.7450  0.2945  3.1849
16958SOL     OW52314   4.301   3.181   4.679  0.1183 -0.7633 -0.0705
16958SOL    HW152315   4.385   3.215   4.707  0.0304 -1.8489  1.6847
16958SOL    HW252316   4.237   3.247   4.706  0.2353 -0.8834  0.5203
16959SOL     OW52317   3.799   5.512   5.101  0.1951 -0.0099 -0.3070
16959SOL    HW152318   3.766   5.557   5.023  0.7533  3.1668  1.1213
16959SOL    HW252319   3.775   5.569   5.174  3.8767 -0.2952  1.3506
16960SOL     OW52320   0.591   3.504   3.418  0.6221 -0.0399 -0.1613
16960SOL    HW152321   0.582   3.468   3.330 -0.0272  0.2185 -0.2065
16960SOL    HW252322   0.686   3.508   3.433  0.7073 -1.5451 -0.2293
16961SOL     OW52323   6.431   2.246   9.399 -0.0042  0.4986  0.2066
16961SOL    HW152324   6.496   2.177   9.389 -0.5020 -0.0325  0.6150
16961SOL    HW252325   6.387   2.226   9.482 -0.4294  1.0699  0.1232
16962SOL     OW52326   6.045   4.197   8.587  0.4396  0.2019 -0.2327
16962SOL    HW152327   5.954   4.170   8.575  0.1594 -0.1839  2.2958
16962SOL    HW252328   6.092   4.115   8.605  1.0888  0.5417 -0.3441
16963SOL     OW52329   7.313   6.174   8.989  0.2110 -0.2596 -0.2445
16963SOL    HW152330   7.266   6.123   8.923  0.5348  1.4473 -1.8834
16963SOL    HW252331   7.284   6.265   8.974  2.0398  0.4865  0.4332
16964SOL     OW52332   7.453   1.261   2.572 -0.0373 -0.0045  0.1432
16964SOL    HW152333   7.516   1.330   2.592  1.4469 -1.0115 -0.8950
16964SOL    HW252334   7.400   1.298   2.501  1.1703 -0.1455 -0.8587
16965SOL     OW52335   3.568   6.445   7.542  0.0727 -0.4636  0.1097
16965SOL    HW152336   3.614   6.525   7.565 -0.6504 -0.5207  1.9956
16965SOL    HW252337   3.487   6.474   7.501 -0.4627 -0.1757  1.3295
16966SOL     OW52338   4.457   5.955  11.282  0.2503  0.5490 -0.0252
16966SOL    HW152339   4.452   5.917  11.194 -0.4795  0.4996  0.0328
16966SOL    HW252340   4.499   6.040  11.269  2.1038 -0.3257 -0.1332
16967SOL     OW52341   0.660   1.032   7.046 -0.4206 -0.7465  0.0945
16967SOL    HW152342   0.577   1.042   7.093 -0.1336  0.8115  0.3172
16967SOL    HW252343   0.725   1.066   7.106 -0.0511  1.4730 -1.4562
16968SOL     OW52344   2.212   4.840  11.783  0.1120 -0.1456  0.0708
16968SOL    HW152345   2.202   4.747  11.764  0.3002  0.2028 -2.0903
16968SOL    HW252346   2.246   4.844  11.872  0.1244 -2.1322  0.1940
16969SOL     OW52347   4.578   6.780   0.395 -0.0952  0.2288 -0.9368
16969SOL    HW152348   4.491   6.741   0.388 -1.3231  2.7742 -1.3777
16969SOL    HW252349   4.637   6.707   0.410 -2.1138 -1.7603 -2.1231
16970SOL     OW52350   2.126   2.168   2.039  0.1853  0.1613 -0.7288
16970SOL    HW152351   2.218   2.181   2.014  1.4218 -2.2261  1.9893
16970SOL    HW252352   2.121   2.200   2.129 -1.3600 -0.7176 -0.4680
16971SOL     OW52353   0.659   2.129  11.626 -0.0484 -0.1985  0.1105
16971SOL    HW152354   0.680   2.078  11.704 -0.1968 -0.6582 -0.1414
16971SOL    HW252355   0.620   2.210  11.660  2.6534  0.9841  0.6051
16972SOL     OW52356   0.441   2.660   6.636 -0.8253  0.8046 -0.1956
16972SOL    HW152357   0.522   2.623   6.673 -0.9745 -1.2644 -1.7587
16972SOL    HW252358   0.441   2.751   6.666  2.1676  0.9436 -0.2308
16973SOL     OW52359   3.520   0.069   1.854 -0.0673  0.2275 -0.1140
16973SOL    HW152360   3.613   0.062   1.830  0.4209  1.5875  1.2168
16973SOL    HW252361   3.492   0.152   1.815 -1.2674 -1.0096 -2.0422
16974SOL     OW52362   6.326   5.723  10.047  0.1966  0.6887 -0.0486
16974SOL    HW152363   6.310   5.637  10.084 -0.5298 -0.2860 -2.4565
16974SOL    HW252364   6.387   5.765  10.108  2.2846 -2.3171  0.1504
16975SOL     OW52365   4.884   6.557   6.386  0.4652  0.3715 -0.8864
16975SOL    HW152366   4.833   6.521   6.313 -2.8065  2.0735  0.3468
16975SOL    HW252367   4.922   6.637   6.351 -1.4505  1.4149 -0.7069
16976SOL     OW52368   4.059   7.832  10.010 -0.4425  0.0930 -0.0608
16976SOL    HW152369   4.122   7.797   9.947  0.5859  1.6467  0.0423
16976SOL    HW252370   3.990   7.871   9.957 -0.5641 -0.2977 -0.1934
16977SOL     OW52371   4.214   2.727   4.576 -0.2543 -0.1586  0.3444
16977SOL    HW152372   4.167   2.667   4.633 -0.3126 -1.1165 -0.6756
16977SOL    HW252373   4.188   2.702   4.487  1.1693  0.1388 -0.1944
16978SOL     OW52374   4.291   6.207  11.521 -0.7325  0.4740  0.2581
16978SOL    HW152375   4.244   6.175  11.444  1.3299 -1.8871 -0.1529
16978SOL    HW252376   4.323   6.127  11.564  1.7984  1.8511  1.1443
16979SOL     OW52377   4.426   4.302   1.285 -0.1212  0.6501 -0.1650
16979SOL    HW152378   4.462   4.218   1.257 -2.1550 -0.0688 -0.8270
16979SOL    HW252379   4.386   4.285   1.370 -1.6999  0.5652 -0.8881
16980SOL     OW52380   4.606   6.231   8.140 -0.0905 -0.1110 -0.0805
16980SOL    HW152381   4.523   6.270   8.113 -0.3009 -0.6631 -0.2483
16980SOL    HW252382   4.672   6.274   8.086 -0.4455 -0.7874 -1.0771
16981SOL     OW52383   5.059   4.427   4.078  0.3809  0.4717  0.2145
16981SOL    HW152384   5.079   4.334   4.078 -0.5681  0.2534 -0.7379
16981SOL    HW252385   5.007   4.441   4.156  1.9805  0.5537  1.3065
16982SOL     OW52386   2.981   6.414   7.989 -0.3063 -0.7453  0.1192
16982SOL    HW152387   3.033   6.371   7.921 -0.1679 -0.9751  0.3695
16982SOL    HW252388   2.994   6.361   8.067 -0.7321 -0.6705  0.2441
16983SOL     OW52389   0.220   7.249   5.459 -0.0484  0.6772  0.0339
16983SOL    HW152390   0.236   7.318   5.394 -0.6268 -0.9050 -1.9205
16983SOL    HW252391   0.125   7.247   5.469  0.1250  3.0151  3.4968
16984SOL     OW52392   1.394   7.288   2.009  0.1909 -0.8050  0.0451
16984SOL    HW152393   1.351   7.263   1.927  1.1041 -1.7773 -0.1525
16984SOL    HW252394   1.325   7.330   2.060 -0.3911 -0.1280 -1.2301
16985SOL     OW52395   4.265   1.345   9.845 -0.0307  0.1523 -0.0569
16985SOL    HW152396   4.227   1.284   9.908  0.0825 -0.4822 -0.5906
16985SOL    HW252397   4.189   1.379   9.796 -0.1083  0.5666  0.3448
16986SOL     OW52398   7.029   0.451  10.470  0.3489  0.1407  0.9469
16986SOL    HW152399   7.094   0.504  10.423 -0.9247  0.3240 -0.7208
16986SOL    HW252400   7.069   0.365  10.479  1.1658  0.4945  0.7696
16987SOL     OW52401   0.211   7.061   3.555 -0.2076  0.0113 -0.3550
16987SOL    HW152402   0.226   7.048   3.462  0.2574  0.9831 -0.4282
16987SOL    HW252403   0.206   6.972   3.591  0.4197 -0.3699 -1.1734
16988SOL     OW52404   4.338   4.694  10.999 -0.4634 -0.0238 -0.3207
16988SOL    HW152405   4.341   4.698  11.095 -1.1515  1.7919 -0.3323
16988SOL    HW252406   4.274   4.626  10.980  0.2081 -0.9129  0.4735
16989SOL     OW52407   3.073   4.692   3.240 -0.3951  0.0715 -0.2449
16989SOL    HW152408   3.137   4.650   3.298  0.6490  0.1189 -1.3215
16989SOL    HW252409   3.088   4.786   3.250 -0.8861  0.1104  0.1421
16990SOL     OW52410   1.846   4.741   3.469 -0.2775 -0.0917  0.2236
16990SOL    HW152411   1.904   4.712   3.399  0.3291  0.5793  0.4269
16990SOL    HW252412   1.793   4.664   3.491 -0.8785 -0.1612 -1.3382
16991SOL     OW52413   4.357   1.606   2.607 -0.4391 -0.4254  0.3348
16991SOL    HW152414   4.339   1.547   2.680  1.6527 -0.6771  0.7113
16991SOL    HW252415   4.378   1.690   2.648 -1.9047  0.1958 -0.1340
16992SOL     OW52416   7.473   6.567   5.199  0.1926 -0.4752  0.2526
16992SOL    HW152417   7.466   6.660   5.217  0.1576 -0.5972  0.8890
16992SOL    HW252418   7.482   6.526   5.285  3.5145 -0.7986 -0.1380
16993SOL     OW52419   6.646   3.523   3.624 -0.0531 -0.0330 -0.2269
16993SOL    HW152420   6.718   3.478   3.581  0.9735  0.8878  0.4721
16993SOL    HW252421   6.650   3.495   3.715 -2.7212 -2.6199 -0.7468
16994SOL     OW52422   4.156   5.675  12.028  0.4282 -0.5394 -0.0335
16994SOL    HW152423   4.138   5.583  12.006 -2.1368 -0.1192 -0.0591
16994SOL    HW252424   4.176   5.673  12.121  0.3440 -1.1297 -0.0201
16995SOL     OW52425   1.693   6.988  11.659 -0.0457  0.2736  0.1305
16995SOL    HW152426   1.614   7.032  11.690  0.6105  1.2006  0.5433
16995SOL    HW252427   1.755   6.995  11.731  0.9010  0.8675 -0.7063
16996SOL     OW52428   0.702   0.717   4.829  0.8974  0.3405  0.0572
16996SOL    HW152429   0.634   0.763   4.780  0.1661 -1.0189 -0.2594
16996SOL    HW252430   0.654   0.671   4.899  1.6513  0.4320  0.6402
16997SOL     OW52431   0.546   6.518   4.481 -0.1226 -0.1962 -0.0074
16997SOL    HW152432   0.476   6.499   4.419  0.9877 -0.7144 -1.1571
16997SOL    HW252433   0.566   6.610   4.467  1.1145 -0.6454 -1.5510
16998SOL     OW52434   4.187   6.568   2.368 -0.4045 -0.1486  0.4711
16998SOL    HW152435   4.276   6.547   2.396 -0.4138  0.9505  1.3790
16998SOL    HW252436   4.183   6.537   2.278  0.7196 -0.7005  0.5882
16999SOL     OW52437   4.331   0.757   9.073  0.3481  0.4191  0.4044
16999SOL    HW152438   4.257   0.786   9.126  0.6927 -0.0597  1.1747
16999SOL    HW252439   4.407   0.768   9.131  0.6122 -1.0275  0.3721
17000SOL     OW52440   7.922   4.188   9.561 -0.3035 -0.3910  0.2469
17000SOL    HW152441   7.952   4.278   9.555 -1.5415  0.1973  2.1508
17000SOL    HW252442   8.002   4.136   9.561  0.4869  0.7917  0.4322
17001SOL     OW52443   1.028   3.696   8.369  0.5786  0.0676  0.8396
17001SOL    HW152444   1.086   3.660   8.302 -0.3157  0.4109 -0.1320
17001SOL    HW252445   1.027   3.628   8.438  1.3718 -0.3584  0.4484
17002SOL     OW52446   6.355   1.290   9.945  0.5502 -0.4077  0.0390
17002SOL    HW152447   6.349   1.344  10.024  0.4339 -0.8117  0.3107
17002SOL    HW252448   6.445   1.301   9.915  0.4576  0.1301 -0.0448
17003SOL     OW52449   2.868   5.688   0.216  0.1912  0.5028 -0.0366
17003SOL    HW152450   2.795   5.716   0.270 -0.2011  1.8701 -1.2155
17003SOL    HW252451   2.853   5.595   0.200  0.7618 -0.1717  2.8235
17004SOL     OW52452   6.639   2.815   3.502  0.3992 -0.3845  0.1607
17004SOL    HW152453   6.710   2.819   3.438 -0.1950  0.6830 -0.4532
17004SOL    HW252454   6.583   2.744   3.471  0.5996 -0.4780  0.0119
17005SOL     OW52455   6.819   3.519   2.159  0.0276  0.1774  0.0019
17005SOL    HW152456   6.788   3.429   2.164 -1.1479  0.5796  0.1602
17005SOL    HW252457   6.798   3.547   2.070  1.7550 -0.1599 -0.5581
17006SOL     OW52458   6.133   1.936   8.937  0.4595 -0.4531 -0.4091
17006SOL    HW152459   6.202   1.998   8.959 -1.4975  1.6477  0.2422
17006SOL    HW252460   6.062   1.991   8.904 -1.4820 -2.3086  0.4445
17007SOL     OW52461   2.005   5.595  10.661 -0.3660 -0.1191  0.0584
17007SOL    HW152462   1.990   5.680  10.702 -3.8183 -0.8762  0.7247
17007SOL    HW252463   1.932   5.586  10.598 -0.7839 -2.9805  0.8070
17008SOL     OW52464   4.760   0.788   0.016 -0.4606  0.2461  0.0246
17008SOL    HW152465   4.687   0.735   0.047 -1.5908  0.6963 -1.7624
17008SOL    HW252466   4.743   0.875   0.050 -0.2971  0.1731  0.2995
17009SOL     OW52467   3.326   4.934   8.274 -0.7646 -0.2091  0.1688
17009SOL    HW152468   3.236   4.917   8.248 -0.7452 -1.6117  0.9317
17009SOL    HW252469   3.319   4.965   8.365 -0.4392 -1.0262  0.4794
17010SOL     OW52470   6.082   7.370   1.059 -0.0023  0.3199 -0.9514
17010SOL    HW152471   6.079   7.353   1.153  1.3464  0.6651 -0.8357
17010SOL    HW252472   6.071   7.284   1.019  0.1949  0.0658 -0.4666
17011SOL     OW52473   3.657   5.417   7.875  0.0792  0.3602 -0.0235
17011SOL    HW152474   3.703   5.407   7.792 -0.6976 -2.3631 -0.2136
17011SOL    HW252475   3.628   5.508   7.875  0.6094  0.6005 -2.4549
17012SOL     OW52476   7.165   4.300   8.857 -0.0525  0.5819 -0.2474
17012SOL    HW152477   7.223   4.343   8.793  2.6025 -1.2460  0.7410
17012SOL    HW252478   7.154   4.364   8.927  2.0689  0.5142  0.2075
17013SOL     OW52479   1.946   1.402   3.385  0.1047 -0.4074 -0.3174
17013SOL    HW152480   1.899   1.456   3.448 -0.7869 -1.5952  0.0837
17013SOL    HW252481   1.960   1.459   3.310  1.5509  1.1660  1.0837
17014SOL     OW52482   6.841   5.992   5.895  0.4492 -0.0166  0.4527
17014SOL    HW152483   6.842   5.926   5.826  1.7795  0.9002 -0.4309
17014SOL    HW252484   6.877   6.070   5.855 -0.3469  1.0437  1.7162
17015SOL     OW52485   3.498   4.069   6.678  0.4464 -0.2205  0.3022
17015SOL    HW152486   3.579   4.045   6.721  0.1164 -1.2990  0.3566
17015SOL    HW252487   3.472   4.151   6.718  1.6661  0.2942  0.0618
17016SOL     OW52488   6.114   3.114   2.995  0.3729 -0.6052 -0.0717
17016SOL    HW152489   6.206   3.107   2.968  0.1591 -0.8258 -0.7683
17016SOL    HW252490   6.065   3.079   2.921 -0.3138  0.1494  0.0111
17017SOL     OW52491   3.087   3.299   1.094  0.3404 -0.0607  0.1492
17017SOL    HW152492   3.058   3.314   1.004 -0.6995 -1.1916  0.2566
17017SOL    HW252493   3.015   3.250   1.134  1.4048 -0.8698  1.1604
17018SOL     OW52494   3.797   4.615   1.581 -0.1424  0.5766 -0.5126
17018SOL    HW152495   3.783   4.679   1.511  0.4826  0.7899 -0.4520
17018SOL    HW252496   3.731   4.636   1.647 -1.4031 -0.2582 -1.4638
17019SOL     OW52497   2.588   0.012   9.942  0.6458 -0.1934  0.4845
17019SOL    HW152498   2.664   0.058   9.907  0.4272 -0.9018 -0.9918
17019SOL    HW252499   2.519   0.078   9.945  0.4715 -0.2642 -1.1507
17020SOL     OW52500   2.045   2.081   7.180  0.6067  0.2218 -0.3401
17020SOL    HW152501   2.069   2.129   7.101 -0.4147  0.6452 -0.3989
17020SOL    HW252502   2.033   1.990   7.151 -0.4975  0.5131 -0.8203
17021SOL     OW52503   3.361   5.379   9.784 -0.0178  0.1534 -0.2647
17021SOL    HW152504   3.345   5.463   9.826  0.2028 -0.2401  0.6368
17021SOL    HW252505   3.427   5.397   9.718 -0.3628  0.7878 -0.4373
17022SOL     OW52506   5.477   6.789   6.138 -0.6131 -0.5186 -0.1720
17022SOL    HW152507   5.405   6.834   6.094 -1.5807 -1.1040  0.7527
17022SOL    HW252508   5.486   6.833   6.222  1.0407  0.4178 -0.7842
17023SOL     OW52509   4.161   4.309  12.356 -0.1320  0.8942 -0.2480
17023SOL    HW152510   4.091   4.374  12.361 -1.1832 -0.2096 -0.0347
17023SOL    HW252511   4.221   4.332  12.427 -0.6013  1.4930 -0.0354
17024SOL     OW52512   2.145   0.106   9.611  0.3032  0.0330 -0.0137
17024SOL    HW152513   2.222   0.057   9.640  0.5900  1.6794  2.2036
17024SOL    HW252514   2.180   0.188   9.577 -0.3725 -0.0429 -0.9482
17025SOL     OW52515   0.602   6.907   7.009 -0.1141 -0.0579  0.1964
17025SOL    HW152516   0.587   6.865   7.093  0.1929 -1.8099 -0.5772
17025SOL    HW252517   0.546   6.859   6.948 -1.5297  2.1853 -0.3821
17026SOL     OW52518   6.235   6.310  11.513  0.4233 -0.1560 -0.1647
17026SOL    HW152519   6.257   6.366  11.587  0.9230 -0.1148 -0.3406
17026SOL    HW252520   6.319   6.278  11.482  0.0857 -2.0729  0.7513
17027SOL     OW52521   7.633   6.019  11.821  0.8321 -0.1632  0.1997
17027SOL    HW152522   7.573   6.026  11.895 -0.0302 -0.1562 -0.4786
17027SOL    HW252523   7.633   5.927  11.798 -0.1923  0.0534 -0.7949
17028SOL     OW52524   2.513   2.957   4.387 -0.5298  0.1459 -0.0777
17028SOL    HW152525   2.577   2.900   4.343 -1.3473  0.4592 -1.7300
17028SOL    HW252526   2.449   2.896   4.424  0.7743 -0.1882  1.8126
17029SOL     OW52527   1.861   5.166  11.045 -0.2018  0.4887 -0.2223
17029SOL    HW152528   1.930   5.220  11.006  0.7171  0.0785  0.7912
17029SOL    HW252529   1.782   5.219  11.036  0.4015  1.3486 -0.6065
17030SOL     OW52530   5.243   6.732   2.370  0.3028  0.1209 -0.0957
17030SOL    HW152531   5.223   6.824   2.390  0.3437  0.2786 -0.7716
17030SOL    HW252532   5.309   6.736   2.301  1.4113 -0.4136  0.8821
17031SOL     OW52533   5.970   0.537   1.366  1.0204 -0.0110 -0.4977
17031SOL    HW152534   6.059   0.500   1.359  0.6461 -1.2631  0.8186
17031SOL    HW252535   5.942   0.513   1.454 -1.0523 -0.5828 -1.2700
17032SOL     OW52536   0.865   3.936   6.904  0.1717 -0.4328 -0.0863
17032SOL    HW152537   0.772   3.924   6.923  0.4367 -1.3611  0.7030
17032SOL    HW252538   0.879   3.894   6.820 -0.4299  1.1521 -1.0303
17033SOL     OW52539   5.188   1.295   8.289 -0.2850  0.6612 -0.5798
17033SOL    HW152540   5.243   1.308   8.367 -1.8520  1.2983  0.4767
17033SOL    HW252541   5.250   1.292   8.216  1.4700 -2.2899  0.8585
17034SOL     OW52542   2.851   5.825   7.133 -0.3156 -0.4912 -0.1522
17034SOL    HW152543   2.935   5.871   7.135 -0.3133 -0.5067  0.2273
17034SOL    HW252544   2.872   5.736   7.105 -0.1563 -0.5920  0.2818
17035SOL     OW52545   1.162   0.314   1.538  0.5216  0.8401  0.1311
17035SOL    HW152546   1.191   0.281   1.623 -1.1333 -2.4581 -0.4191
17035SOL    HW252547   1.230   0.288   1.477  0.2616  0.4287  0.0138
17036SOL     OW52548   1.700   6.855   4.574  0.4960 -0.9575 -0.0784
17036SOL    HW152549   1.751   6.819   4.646 -0.3453 -0.4395  0.8057
17036SOL    HW252550   1.752   6.928   4.541 -1.0227  1.8230  3.0345
17037SOL     OW52551   5.781   4.345   7.622  0.2286 -0.0477  0.1559
17037SOL    HW152552   5.747   4.401   7.552 -0.5200  0.0401  0.5783
17037SOL    HW252553   5.862   4.387   7.649 -0.3732  0.9138  0.5361
17038SOL     OW52554   7.354   1.472   0.294  0.1299 -0.4123 -0.3590
17038SOL    HW152555   7.440   1.495   0.260 -0.2043  1.3638 -0.1145
17038SOL    HW252556   7.368   1.457   0.388  0.3433 -1.2166 -0.5121
17039SOL     OW52557   0.642   7.481  10.703 -0.0324  0.1187  0.0654
17039SOL    HW152558   0.720   7.438  10.667 -0.8102 -0.8877 -0.4944
17039SOL    HW252559   0.629   7.558  10.649 -0.8126 -1.0330 -1.4633
17040SOL     OW52560   2.244   2.970   4.962 -0.4244 -0.2680 -0.5697
17040SOL    HW152561   2.316   3.022   4.926 -0.3817 -2.3310 -3.9502
17040SOL    HW252562   2.168   3.027   4.957  0.2554  0.6590 -0.6860
17041SOL     OW52563   1.725   2.063   0.685 -0.0234 -0.8552 -0.2467
17041SOL    HW152564   1.804   2.013   0.704  1.1724  1.3577  0.9413
17041SOL    HW252565   1.744   2.152   0.716 -3.0027 -0.2524  0.1604
17042SOL     OW52566   5.530   1.864   9.948 -0.0448  0.1233 -0.2234
17042SOL    HW152567   5.574   1.799   9.894 -1.1023 -0.5385 -0.3192
17042SOL    HW252568   5.573   1.858  10.033  0.3079 -0.2318 -0.4245
17043SOL     OW52569   6.670   1.438   1.082  0.6532  0.0419 -0.1044
17043SOL    HW152570   6.717   1.495   1.021  1.7462 -0.5667  0.1445
17043SOL    HW252571   6.577   1.454   1.063  0.9519 -0.0132 -1.8348
17044SOL     OW52572   4.317   0.424   1.519 -0.2643  0.7470  0.4789
17044SOL    HW152573   4.384   0.489   1.543  0.9489 -0.1732 -0.2672
17044SOL    HW252574   4.315   0.364   1.594  0.3061  0.3646  0.1997
17045SOL     OW52575   7.618   4.336   6.484 -0.0891  0.0331  0.0417
17045SOL    HW152576   7.561   4.269   6.446 -0.5905  0.3556  0.2207
17045SOL    HW252577   7.706   4.300   6.473 -0.3379 -0.5855 -0.0024
17046SOL     OW52578   6.382   4.439   7.798  0.0571 -0.0019 -0.6835
17046SOL    HW152579   6.368   4.484   7.715 -1.5589 -1.1121 -1.0702
17046SOL    HW252580   6.295   4.408   7.823  0.9771 -2.4940 -0.2338
17047SOL     OW52581   2.681   2.875   7.754  0.8154  0.3365  0.0429
17047SOL    HW152582   2.673   2.948   7.816  1.4105 -0.8807  1.6530
17047SOL    HW252583   2.592   2.859   7.724  0.7369  1.9847 -0.6863
17048SOL     OW52584   6.472   7.498   0.528  0.1415 -0.2195  0.0425
17048SOL    HW152585   6.549   7.531   0.574 -0.5153  0.2074  0.8895
17048SOL    HW252586   6.400   7.552   0.561 -0.6805 -1.2785  0.0494
17049SOL     OW52587   6.835   0.317   3.523  0.2029 -0.0767  0.8337
17049SOL    HW152588   6.800   0.280   3.442 -0.5062  1.0074  0.6304
17049SOL    HW252589   6.895   0.387   3.494  0.4782 -0.1404  1.2362
17050SOL     OW52590   5.922   5.373  12.116  0.8167  0.1349 -0.0847
17050SOL    HW152591   5.980   5.401  12.186  0.6985  0.9343 -0.2937
17050SOL    HW252592   5.863   5.310  12.157  1.1914  0.0734  0.3643
17051SOL     OW52593   1.477   4.675   3.961 -0.3397  0.1055  0.1598
17051SOL    HW152594   1.527   4.595   3.948  0.3990  0.3888  1.1348
17051SOL    HW252595   1.410   4.673   3.893 -1.5841 -2.2932  1.3288
17052SOL     OW52596   1.794   0.101   1.704 -0.1212 -0.0236 -0.5157
17052SOL    HW152597   1.733   0.129   1.773 -0.6577 -0.3020 -0.8687
17052SOL    HW252598   1.737   0.074   1.632  0.4299 -0.1441 -0.9082
17053SOL     OW52599   0.203   7.859   7.790 -0.4961  0.3521  0.1923
17053SOL    HW152600   0.229   7.816   7.709  0.8082  1.5096 -0.0440
17053SOL    HW252601   0.225   7.796   7.859  0.2822  0.1661 -0.2189
17054SOL     OW52602   4.078   4.135   5.482  0.2964 -0.3681  0.1855
17054SOL    HW152603   4.047   4.083   5.408 -1.3438 -2.3097  2.0911
17054SOL    HW252604   4.163   4.168   5.454 -0.2568 -0.9549 -2.5442
17055SOL     OW52605   1.080   1.054   1.165  0.2832 -0.0513  0.0493
17055SOL    HW152606   1.008   0.992   1.166 -0.4470  0.7781 -0.2082
17055SOL    HW252607   1.134   1.029   1.240  0.5643 -1.6277 -0.6467
17056SOL     OW52608   3.075   5.010   6.865  0.4645 -0.3264 -0.3676
17056SOL    HW152609   3.032   5.090   6.834 -0.0284 -0.6090 -0.4186
17056SOL    HW252610   3.042   4.941   6.808 -0.3631 -0.8376  0.6930
17057SOL     OW52611   3.765   6.347  11.600  0.1640 -0.4530  0.0305
17057SOL    HW152612   3.677   6.329  11.631 -0.0047  0.8984  0.3810
17057SOL    HW252613   3.756   6.353  11.504  0.5824 -4.0308 -0.3561
17058SOL     OW52614   3.591   4.993   5.272  0.5022 -0.1698 -0.8355
17058SOL    HW152615   3.596   4.978   5.367  1.2397  2.0571 -0.4730
17058SOL    HW252616   3.497   4.991   5.254  0.3001  0.1306  0.0910
17059SOL     OW52617   2.636   7.493   5.205  0.2331  0.3190  0.2701
17059SOL    HW152618   2.701   7.465   5.269 -0.3373  1.9429  1.6446
17059SOL    HW252619   2.570   7.540   5.256 -1.9732 -1.0946 -1.0921
17060SOL     OW52620   0.393   1.186   1.635 -0.0083 -0.1450  0.3326
17060SOL    HW152621   0.304   1.157   1.655 -0.4953  0.8408 -0.3388
17060SOL    HW252622   0.436   1.191   1.720 -0.3805 -1.2653  0.6058
17061SOL     OW52623   7.006   4.041   4.590 -0.0843  0.1417  0.0132
17061SOL    HW152624   7.089   3.996   4.604 -0.2007 -0.0342  0.1370
17061SOL    HW252625   6.939   3.975   4.610 -0.2550  0.3681  0.1964
17062SOL     OW52626   7.368   1.431   4.177 -0.2208  0.1332 -0.0903
17062SOL    HW152627   7.275   1.408   4.185  0.0705 -0.4998  2.1997
17062SOL    HW252628   7.414   1.366   4.230  1.4508  0.9947 -0.4084
17063SOL     OW52629   2.488   7.610   1.220 -0.5128 -0.6637 -0.7189
17063SOL    HW152630   2.539   7.663   1.159  1.1136 -1.0958  0.2020
17063SOL    HW252631   2.550   7.546   1.255 -1.2597 -0.2426  1.6122
17064SOL     OW52632   2.006   2.803   6.905 -0.4877 -0.5985 -0.1684
17064SOL    HW152633   2.101   2.792   6.909 -0.3920  0.4527  1.2802
17064SOL    HW252634   1.993   2.887   6.861 -0.6334  0.3652  1.6461
17065SOL     OW52635   2.661   1.827  11.719 -0.1857  0.2545  0.2391
17065SOL    HW152636   2.741   1.807  11.672  0.4453 -1.9335  2.0799
17065SOL    HW252637   2.689   1.842  11.809 -1.5717  2.3934  0.4079
17066SOL     OW52638   4.046   1.343   4.561 -0.2701 -0.5520  0.0115
17066SOL    HW152639   4.138   1.324   4.543 -0.3127 -1.1322  0.3894
17066SOL    HW252640   3.997   1.275   4.516 -0.4955 -0.4901  0.1588
17067SOL     OW52641   1.918   0.870   2.557  0.3630  0.6080 -0.1368
17067SOL    HW152642   1.899   0.937   2.623 -1.3914  1.5949 -1.5494
17067SOL    HW252643   1.833   0.828   2.541  1.1249 -0.9085 -0.4379
17068SOL     OW52644   3.337   4.917   2.384  0.7298 -0.1587 -0.4117
17068SOL    HW152645   3.349   4.823   2.369  2.8570  0.0584 -0.3719
17068SOL    HW252646   3.420   4.957   2.357  0.1202  1.6405  0.1962
17069SOL     OW52647   4.001   6.555   7.087 -0.4205 -0.5514  0.5051
17069SOL    HW152648   3.996   6.650   7.078  0.5876 -0.4324  0.9544
17069SOL    HW252649   3.912   6.525   7.075 -0.7400  0.4449  0.2406
17070SOL     OW52650   3.552   7.484   0.872 -0.7496 -0.3743 -0.0847
17070SOL    HW152651   3.646   7.464   0.865 -0.7653 -0.7372  0.6298
17070SOL    HW252652   3.526   7.507   0.783  0.3016  0.9747 -0.0829
17071SOL     OW52653   3.772   4.180   2.602  0.2275  0.1124  0.2993
17071SOL    HW152654   3.770   4.256   2.543 -0.9188 -0.1017  0.0399
17071SOL    HW252655   3.842   4.200   2.665  0.8197  0.7776 -0.5568
17072SOL     OW52656   1.021   3.657   2.907  0.0591 -0.0090 -0.9605
17072SOL    HW152657   1.035   3.656   2.812  1.6496 -0.4910 -0.7487
17072SOL    HW252658   1.103   3.689   2.943 -0.7375  0.7571  0.2417
17073SOL     OW52659   7.574   3.197  12.001  0.6883  0.3276 -0.7568
17073SOL    HW152660   7.530   3.213  11.917 -1.5072 -1.3851  0.0007
17073SOL    HW252661   7.609   3.108  11.994  1.7811  0.7033 -0.3527
17074SOL     OW52662   7.651   4.020   4.486 -0.0307 -0.3944 -0.2874
17074SOL    HW152663   7.683   3.931   4.472 -1.1333 -1.2217  1.8741
17074SOL    HW252664   7.559   4.016   4.461 -0.3588 -0.1802  0.8465
17075SOL     OW52665   3.545   0.342   6.597 -0.1418 -0.3831  0.1288
17075SOL    HW152666   3.580   0.376   6.515 -0.8468 -0.5779 -0.2591
17075SOL    HW252667   3.591   0.259   6.611  0.7147  0.1336  0.4650
17076SOL     OW52668   2.570   6.252   9.711 -0.2660 -0.3073  0.1933
17076SOL    HW152669   2.582   6.231   9.803 -1.7738  0.0469  0.4962
17076SOL    HW252670   2.634   6.321   9.693  0.6017 -0.9556  0.7428
17077SOL     OW52671   2.172   7.298   6.743 -0.2727  0.1417 -0.3458
17077SOL    HW152672   2.099   7.273   6.798  0.1693  0.0757  0.2196
17077SOL    HW252673   2.245   7.245   6.774  0.1417  0.5686 -0.5715
17078SOL     OW52674   3.784   2.163   5.595  0.0737 -0.4868  0.1873
17078SOL    HW152675   3.710   2.166   5.534 -1.4056 -1.1136  1.8656
17078SOL    HW252676   3.758   2.098   5.660  2.1109 -0.6904  0.8635
17079SOL     OW52677   2.245   0.503  10.207 -0.3414 -0.1807  0.2939
17079SOL    HW152678   2.229   0.597  10.202 -1.5495 -0.2430  2.1565
17079SOL    HW252679   2.276   0.488  10.296 -0.3142 -1.5703  0.0760
17080SOL     OW52680   3.533   6.718   4.606 -0.6052  0.0910  0.1732
17080SOL    HW152681   3.560   6.681   4.522  0.6351  0.0243  0.5855
17080SOL    HW252682   3.447   6.757   4.588  1.2617  3.6822 -2.2160
17081SOL     OW52683   2.968   2.816   2.613 -0.0929  0.1329 -0.3536
17081SOL    HW152684   2.915   2.895   2.615  0.6250  0.6398 -0.6652
17081SOL    HW252685   3.035   2.830   2.681  0.2130 -0.0732 -0.6060
17082SOL     OW52686   5.085   0.048   6.410  1.0934 -0.5304  0.3818
17082SOL    HW152687   5.066  -0.045   6.394 -2.3688  0.1106  0.0448
17082SOL    HW252688   5.138   0.048   6.490 -0.4965 -2.7270  1.5287
17083SOL     OW52689   0.267   3.843  11.065 -0.4471  0.5032  0.2036
17083SOL    HW152690   0.297   3.759  11.029 -0.0837  1.2022 -1.1800
17083SOL    HW252691   0.312   3.909  11.013 -2.6060  1.5986 -0.4057
17084SOL     OW52692   2.666   5.148   0.047  0.2460  0.5935 -0.4925
17084SOL    HW152693   2.673   5.054   0.066  0.2048  0.5954 -0.4679
17084SOL    HW252694   2.604   5.153  -0.026 -1.1487  0.7322  0.6597
17085SOL     OW52695   7.473   1.034   5.704 -0.0128  0.0013  0.7101
17085SOL    HW152696   7.531   1.109   5.690 -1.7048  1.4305  1.0693
17085SOL    HW252697   7.412   1.062   5.772 -1.2879 -1.3458  0.1800
17086SOL     OW52698   4.193   6.339   9.503  0.0849 -0.1189 -0.2230
17086SOL    HW152699   4.243   6.401   9.450  1.2943 -1.1288 -0.3008
17086SOL    HW252700   4.220   6.357   9.593 -1.9385  1.5704  0.1359
17087SOL     OW52701   0.618   4.167   9.279  0.0586 -0.1670  0.0330
17087SOL    HW152702   0.555   4.097   9.299 -0.8917  0.6606 -0.0120
17087SOL    HW252703   0.701   4.120   9.263 -0.4674 -1.2522  0.3568
17088SOL     OW52704   1.734   6.283   2.280  0.4167 -0.2751  0.3494
17088SOL    HW152705   1.762   6.203   2.325 -0.7260 -0.1917  1.2463
17088SOL    HW252706   1.650   6.305   2.320  1.4585  2.3136  1.2950
17089SOL     OW52707   7.409   0.612   6.918 -0.3538 -0.6586  0.1521
17089SOL    HW152708   7.341   0.575   6.861  0.0611  1.0270 -1.5596
17089SOL    HW252709   7.364   0.631   7.000 -2.5225  2.0362 -1.4742
17090SOL     OW52710   4.851   6.971   9.554  0.1029 -0.0227  0.4413
17090SOL    HW152711   4.833   7.007   9.467  0.1485  0.5097  0.6476
17090SOL    HW252712   4.767   6.934   9.582  0.1920 -0.5685  0.0019
17091SOL     OW52713   5.964   0.026   4.952  0.0271  0.2123 -0.8111
17091SOL    HW152714   5.906   0.097   4.922  1.6315  1.1061 -1.9551
17091SOL    HW252715   6.052   0.059   4.935  0.9663 -0.5682  2.1088
17092SOL     OW52716   2.039   6.381   2.542 -0.7016  0.0530 -0.7449
17092SOL    HW152717   2.060   6.364   2.450 -0.3829  0.4620 -0.7543
17092SOL    HW252718   1.986   6.306   2.570  0.6617 -0.9491 -0.7677
17093SOL     OW52719   0.922   3.194   7.608 -0.5362  0.0710  0.1766
17093SOL    HW152720   0.907   3.288   7.601 -0.0535  0.2652  1.5178
17093SOL    HW252721   0.929   3.178   7.702  2.3199 -0.8111 -0.1018
17094SOL     OW52722   5.235   3.187   4.763  0.3482  0.2418 -0.2318
17094SOL    HW152723   5.198   3.193   4.675 -0.3136 -0.1493  0.0129
17094SOL    HW252724   5.210   3.269   4.806  0.4873  0.3390 -0.3346
17095SOL     OW52725   1.449   0.483   4.987 -0.4293  0.4701 -0.4609
17095SOL    HW152726   1.484   0.437   4.911 -1.1164  0.3267 -0.6984
17095SOL    HW252727   1.476   0.574   4.976 -0.6984  0.4867 -0.9793
17096SOL     OW52728   3.780   1.293   6.086  0.2350 -0.4895 -0.5592
17096SOL    HW152729   3.869   1.324   6.096 -0.3852  0.9641  0.9966
17096SOL    HW252730   3.725   1.366   6.116 -1.4832 -1.2676 -1.6225
17097SOL     OW52731   4.663   0.693   0.656  0.2555  0.9170  0.5845
17097SOL    HW152732   4.643   0.619   0.714 -2.3269 -0.2537 -1.5516
17097SOL    HW252733   4.577   0.728   0.632  1.3090  2.6585 -0.9258
17098SOL     OW52734   3.078   2.246   5.597 -0.0076  0.2008  0.0699
17098SOL    HW152735   3.158   2.247   5.544  0.6454 -3.2724  0.7077
17098SOL    HW252736   3.018   2.190   5.546  0.4617 -2.8104  2.5158
17099SOL     OW52737   7.282   2.712   1.919  0.4734 -0.4621  0.0407
17099SOL    HW152738   7.228   2.720   1.997 -1.9157  0.4825 -1.5689
17099SOL    HW252739   7.351   2.777   1.930 -1.9806  2.4022 -0.1628
17100SOL     OW52740   6.359   6.597   1.107  0.1754 -0.0664 -0.3977
17100SOL    HW152741   6.412   6.647   1.169 -1.4757  1.8556 -0.4502
17100SOL    HW252742   6.394   6.622   1.021  1.8430 -2.0147 -0.3682
17101SOL     OW52743   6.694   0.703   3.700  0.0964 -0.1308  0.0520
17101SOL    HW152744   6.651   0.748   3.772 -1.3981  1.0277 -1.4692
17101SOL    HW252745   6.644   0.623   3.688  0.5609 -0.4940  0.5044
17102SOL     OW52746   7.825   6.047   0.303 -0.1956 -0.1391 -0.4484
17102SOL    HW152747   7.842   6.058   0.397  1.0430  0.7331 -0.7522
17102SOL    HW252748   7.740   6.003   0.299 -1.2273  1.5734  1.0470
17103SOL     OW52749   3.306   2.628  12.238 -0.0208  0.2812 -0.1657
17103SOL    HW152750   3.255   2.650  12.316 -0.0235 -1.9516  0.5479
17103SOL    HW252751   3.369   2.699  12.229 -0.8574  1.2291  1.1149
17104SOL     OW52752   0.502   6.598   6.439 -0.3859  0.2318  0.1345
17104SOL    HW152753   0.595   6.575   6.436 -0.2073  0.9959 -2.0902
17104SOL    HW252754   0.457   6.515   6.449  0.5135 -0.1543  1.2184
17105SOL     OW52755   4.089   2.566   4.733 -0.6280  0.3041 -0.2806
17105SOL    HW152756   4.096   2.472   4.744 -0.8274  0.2828 -0.3411
17105SOL    HW252757   4.119   2.602   4.816 -1.2691  0.1655  0.0173
17106SOL     OW52758   4.091   6.428   8.634  0.1344  0.1098  0.4158
17106SOL    HW152759   4.028   6.476   8.687 -0.1036 -0.6399  0.8155
17106SOL    HW252760   4.143   6.497   8.591 -0.5283  0.7248  0.5806
17107SOL     OW52761   5.728   5.326   1.032  0.2209 -0.1571  0.1769
17107SOL    HW152762   5.737   5.320   1.127 -1.0750  1.5958  0.4674
17107SOL    HW252763   5.679   5.248   1.007 -1.4116  0.4701  1.2888
17108SOL     OW52764   3.247   5.964   1.262  0.4540 -0.1591  0.1487
17108SOL    HW152765   3.191   5.888   1.279 -2.6729  1.7583 -0.8691
17108SOL    HW252766   3.316   5.957   1.328 -0.7129 -2.8938  1.2497
17109SOL     OW52767   7.314   1.518   2.329 -0.0590 -0.3743 -0.2326
17109SOL    HW152768   7.355   1.602   2.348 -0.1488 -0.6490  1.2249
17109SOL    HW252769   7.379   1.470   2.278  0.3115  0.2491 -0.3543
17110SOL     OW52770   4.114   0.206   6.848  0.4836  0.2192 -0.0231
17110SOL    HW152771   4.166   0.282   6.821  0.6671  0.3820  0.7529
17110SOL    HW252772   4.034   0.211   6.795  1.0756  0.1872 -0.9508
17111SOL     OW52773   0.107   0.406  10.958 -0.0550 -0.1882  0.4038
17111SOL    HW152774   0.072   0.488  10.992 -0.0505  0.3387 -0.8186
17111SOL    HW252775   0.030   0.351  10.943  0.0224 -0.9272  2.4424
17112SOL     OW52776   4.038   6.074   1.314 -0.6509  0.2624  0.8753
17112SOL    HW152777   4.007   6.047   1.400  0.7316 -0.8631  1.0714
17112SOL    HW252778   3.992   6.017   1.252 -2.0150  1.4086  0.8071
17113SOL     OW52779   7.635   5.128   9.107 -0.2180  0.0733 -0.0766
17113SOL    HW152780   7.612   5.196   9.044 -1.4182 -0.9207 -0.7465
17113SOL    HW252781   7.703   5.168   9.161  0.2111  1.2526 -1.4334
17114SOL     OW52782   0.755   1.459   3.667 -0.6402  0.0102 -0.1123
17114SOL    HW152783   0.696   1.412   3.608 -1.2652  0.2627  0.3058
17114SOL    HW252784   0.698   1.494   3.735 -0.1057  0.9074 -0.1147
17115SOL     OW52785   1.278   5.714  12.345  0.1617 -0.0958 -0.2846
17115SOL    HW152786   1.345   5.686  12.407 -0.1627 -1.4033 -0.4974
17115SOL    HW252787   1.277   5.645  12.278 -1.3506 -0.0759 -0.3138
17116SOL     OW52788   7.507   6.759   2.718  0.1047  0.0344  0.0580
17116SOL    HW152789   7.438   6.744   2.654 -0.6420  0.0860  0.8316
17116SOL    HW252790   7.587   6.731   2.674 -0.5157 -0.7984 -0.5680
17117SOL     OW52791   3.428   7.397   7.870 -0.0995  0.5603  0.1077
17117SOL    HW152792   3.469   7.390   7.784  1.7390  0.2365  0.9421
17117SOL    HW252793   3.344   7.353   7.861 -1.3600  3.1298 -2.2837
17118SOL     OW52794   1.724   1.436   0.346 -0.1081 -0.0282  0.0911
17118SOL    HW152795   1.690   1.418   0.434  0.3667  0.7144  0.4491
17118SOL    HW252796   1.665   1.503   0.311 -0.9171 -1.0626 -0.5890
17119SOL     OW52797   6.105   0.370   9.409  0.0803 -0.0547 -0.1880
17119SOL    HW152798   6.164   0.426   9.460  0.2063  0.1020 -0.5039
17119SOL    HW252799   6.152   0.355   9.327  0.0566 -0.6475 -0.0943
17120SOL     OW52800   5.970   0.691   5.012  0.1954  0.1630 -0.0508
17120SOL    HW152801   5.908   0.623   5.038 -0.9602 -0.3041 -3.5266
17120SOL    HW252802   5.920   0.773   5.020  0.5527  0.3020  1.0466
17121SOL     OW52803   2.312   0.854  11.195  0.4024 -0.3702 -0.1673
17121SOL    HW152804   2.226   0.844  11.234  0.0474  3.2616  0.3585
17121SOL    HW252805   2.372   0.859  11.269  0.7484 -0.6047 -0.4268
17122SOL     OW52806   4.153   7.605  10.604 -0.0318 -0.6877 -0.8920
17122SOL    HW152807   4.211   7.606  10.528  0.9721  0.9519 -0.1788
17122SOL    HW252808   4.160   7.694  10.640  0.4374 -1.7176  1.7836
17123SOL     OW52809   1.554   2.184  10.302  0.3292 -0.4632  0.0748
17123SOL    HW152810   1.462   2.209  10.311  0.0727 -1.2316 -0.3035
17123SOL    HW252811   1.602   2.267  10.306 -0.4834  0.0950 -1.0161
17124SOL     OW52812   5.524   3.587   3.984  0.0619 -0.2939  0.0002
17124SOL    HW152813   5.615   3.608   3.966 -0.0962 -0.4737 -1.0994
17124SOL    HW252814   5.484   3.579   3.898 -0.7519 -1.2605  0.4459
17125SOL     OW52815   1.490   4.217   9.782  0.5381 -0.2889  0.4631
17125SOL    HW152816   1.455   4.142   9.734  0.5554 -0.2803  0.4365
17125SOL    HW252817   1.444   4.215   9.866  0.2438 -0.0888  0.3068
17126SOL     OW52818   4.453   1.937   4.878 -0.0559  0.6475 -0.2408
17126SOL    HW152819   4.498   1.940   4.962  0.4707  0.9462 -0.5256
17126SOL    HW252820   4.374   1.885   4.894  0.7205 -0.4585  0.1137
17127SOL     OW52821   5.070   5.022   7.634  0.8252 -0.7563  0.1047
17127SOL    HW152822   5.128   5.086   7.593  0.0358 -0.4272 -0.5307
17127SOL    HW252823   5.023   4.983   7.560 -1.5560  0.7457  0.7470
17128SOL     OW52824   3.341   0.466  12.266 -0.3509 -0.6303  0.2039
17128SOL    HW152825   3.265   0.410  12.251 -0.4080 -0.2281 -1.1300
17128SOL    HW252826   3.361   0.503  12.180 -0.0822  1.1033  0.9668
17129SOL     OW52827   2.227   0.590  11.007 -0.1701  0.5456 -0.2733
17129SOL    HW152828   2.264   0.677  11.023 -0.1145  0.6175 -0.7617
17129SOL    HW252829   2.248   0.539  11.085  1.3599  0.4509 -0.7288
17130SOL     OW52830   0.297   2.421   3.620  0.3870 -0.7815 -0.0222
17130SOL    HW152831   0.207   2.442   3.593  1.0378 -0.3264 -1.9679
17130SOL    HW252832   0.299   2.443   3.713 -1.0986  0.7187 -0.2917
17131SOL     OW52833   4.182   6.489  11.964  0.2219  0.1664  0.6959
17131SOL    HW152834   4.139   6.446  12.037  0.5927  0.2314  0.9572
17131SOL    HW252835   4.162   6.435  11.888 -0.0902  0.0503  0.8600
17132SOL     OW52836   5.649   6.084  10.101  0.6184 -0.7410  0.3499
17132SOL    HW152837   5.604   6.010  10.141  0.2755 -0.5477  0.3296
17132SOL    HW252838   5.688   6.131  10.174  0.1514 -0.4921  0.4418
17133SOL     OW52839   7.719   4.367  10.340 -0.0247 -0.3181  0.3641
17133SOL    HW152840   7.629   4.347  10.316  0.3852 -1.2813 -0.4852
17133SOL    HW252841   7.747   4.431  10.275  0.8934 -2.4727 -1.5161
17134SOL     OW52842   7.434   5.797   6.822  0.0343 -0.5878 -0.3849
17134SOL    HW152843   7.363   5.859   6.803 -0.0894 -0.4047  0.6060
17134SOL    HW252844   7.414   5.764   6.910  0.7247 -1.1624 -0.4365
17135SOL     OW52845   0.731   1.357  11.175 -0.6713  0.1542 -0.2712
17135SOL    HW152846   0.819   1.377  11.144 -0.2729  0.3278  0.9126
17135SOL    HW252847   0.691   1.443  11.187 -0.1049  0.1914  1.6266
17136SOL     OW52848   1.056   0.639   8.747  0.8345 -0.3306 -0.5732
17136SOL    HW152849   1.038   0.713   8.689  2.0196 -0.1944 -0.8118
17136SOL    HW252850   0.971   0.615   8.783  0.3995  1.0980 -0.5567
17137SOL     OW52851   6.649   5.760   7.732  0.0135  0.4152  0.2592
17137SOL    HW152852   6.635   5.665   7.731 -0.1773  0.4459 -0.0957
17137SOL    HW252853   6.562   5.798   7.718  0.1663  0.6329 -0.1292
17138SOL     OW52854   2.256   6.966   5.532  0.4356  0.3850  0.2215
17138SOL    HW152855   2.260   6.892   5.593 -1.0781  1.9113  2.3208
17138SOL    HW252856   2.305   6.936   5.455  2.4234 -1.6766  2.1259
17139SOL     OW52857   3.266   6.306   9.272 -0.6026  0.3746  0.1676
17139SOL    HW152858   3.345   6.307   9.325  0.8353 -2.0767 -1.7352
17139SOL    HW252859   3.281   6.374   9.205  0.8851 -1.3703 -1.3733
17140SOL     OW52860   0.252   0.490   2.101  0.2646 -0.2382 -0.0912
17140SOL    HW152861   0.332   0.442   2.085 -0.0914 -1.1582  0.7769
17140SOL    HW252862   0.253   0.507   2.195  0.2320  1.2055 -0.3231
17141SOL     OW52863   1.707   2.430   4.922 -0.2735 -0.2071  0.2113
17141SOL    HW152864   1.724   2.513   4.877  1.1122 -0.8198 -0.4564
17141SOL    HW252865   1.793   2.389   4.929 -1.0167 -1.8716 -0.0337
17142SOL     OW52866   0.049   4.994   5.698 -0.3096 -0.1510  0.0011
17142SOL    HW152867   0.058   4.902   5.674 -1.4139 -0.2646 -0.0364
17142SOL    HW252868   0.132   5.034   5.672  0.3105 -1.1962  0.3255
17143SOL     OW52869   5.294   1.925   8.985 -0.0604 -0.4089 -0.1462
17143SOL    HW152870   5.384   1.910   9.015  0.5277  1.7468 -0.6945
17143SOL    HW252871   5.267   2.006   9.027 -1.6780 -0.8883 -0.1974
17144SOL     OW52872   1.228   6.342   8.163  0.0727  0.3610 -0.3214
17144SOL    HW152873   1.175   6.421   8.164 -0.7177 -0.1662 -0.3036
17144SOL    HW252874   1.168   6.272   8.186  0.7362 -0.2721 -0.4760
17145SOL     OW52875   3.874   2.259   4.006 -0.5509 -0.4125 -0.2708
17145SOL    HW152876   3.897   2.352   4.017  0.3314 -0.8016  1.5311
17145SOL    HW252877   3.953   2.220   3.968 -0.8926 -0.4588 -0.9495
17146SOL     OW52878   0.654   1.404   6.533  0.4888  0.1223  0.1741
17146SOL    HW152879   0.604   1.472   6.578  2.6414  1.5320  0.6019
17146SOL    HW252880   0.715   1.371   6.599  0.3141 -1.3566 -0.3756
17147SOL     OW52881   2.924   7.632   8.407  0.2784  0.0475  0.8641
17147SOL    HW152882   2.884   7.679   8.481  0.2888  0.6110  0.5185
17147SOL    HW252883   2.850   7.605   8.353  0.3254  0.5406  0.5495
17148SOL     OW52884   2.153   5.991   9.794  0.1573 -0.0032 -0.8527
17148SOL    HW152885   2.103   6.063   9.755  0.4995  1.7740  1.6901
17148SOL    HW252886   2.234   6.032   9.825  0.6359 -1.6124  0.1321
17149SOL     OW52887   2.868   0.207   7.626  0.3886  0.1720 -0.2694
17149SOL    HW152888   2.907   0.121   7.643  1.1753  0.3929 -0.9192
17149SOL    HW252889   2.880   0.254   7.708  3.0120  0.7926 -0.9103
17150SOL     OW52890   7.245   7.460  11.011 -0.2513 -0.0836  0.0452
17150SOL    HW152891   7.178   7.451  10.944  0.7665 -0.4085 -0.9580
17150SOL    HW252892   7.320   7.410  10.978  0.5536  0.4079  1.0456
17151SOL     OW52893   0.061   0.117   8.018 -0.0102  0.2807 -0.6739
17151SOL    HW152894   0.066   0.181   8.088  2.1571  1.2555 -1.6254
17151SOL    HW252895   0.132   0.055   8.037 -1.6811 -1.5706 -0.0961
17152SOL     OW52896   2.012   7.121   6.446 -0.2200 -0.4194 -0.0508
17152SOL    HW152897   2.097   7.088   6.478 -0.1934  0.4142  0.7817
17152SOL    HW252898   2.035   7.173   6.368 -0.1594 -1.5229 -0.7940
17153SOL     OW52899   1.264   4.577   3.064  0.4755 -0.7376 -0.2667
17153SOL    HW152900   1.258   4.508   2.998  1.7722 -1.5745  0.4552
17153SOL    HW252901   1.324   4.642   3.026 -0.3579 -0.2211 -0.7358
17154SOL     OW52902   7.044   4.963   1.124  0.6588  0.1666  0.2145
17154SOL    HW152903   7.078   5.032   1.181  1.2499  0.8270 -0.9161
17154SOL    HW252904   6.965   5.000   1.085  0.5841 -0.0645  0.1433
17155SOL     OW52905   2.794   0.579   9.367 -0.4574  0.0462  0.0563
17155SOL    HW152906   2.778   0.616   9.454 -0.3942  0.8343 -0.2613
17155SOL    HW252907   2.889   0.572   9.362 -0.5249 -1.6498  0.7168
17156SOL     OW52908   0.695   7.647  11.814  0.4769 -0.2001 -0.4098
17156SOL    HW152909   0.663   7.736  11.827  1.5744  0.1452  0.0245
17156SOL    HW252910   0.693   7.608  11.901 -0.5454 -0.8079 -0.6859
17157SOL     OW52911   0.316   6.578   7.644  0.1179 -0.4146 -0.3411
17157SOL    HW152912   0.345   6.666   7.617  0.1209 -0.2795  0.0930
17157SOL    HW252913   0.327   6.524   7.566  1.4870 -0.3533 -0.2057
17158SOL     OW52914   5.843   5.788   7.066 -0.3181  0.2694 -0.2575
17158SOL    HW152915   5.902   5.860   7.043  0.3100  0.3182  1.3654
17158SOL    HW252916   5.769   5.797   7.006 -0.7924  2.9490  0.6304
17159SOL     OW52917   6.538   4.916  10.814 -0.2679  0.3276  0.2901
17159SOL    HW152918   6.449   4.898  10.845 -0.6169  1.3688 -0.0649
17159SOL    HW252919   6.568   4.988  10.868  0.2440  0.1924  0.1906
17160SOL     OW52920   5.944   5.250   8.858 -0.2554  0.3139 -0.0164
17160SOL    HW152921   5.920   5.198   8.782  1.0209  1.7447 -1.4846
17160SOL    HW252922   5.953   5.187   8.929 -2.2011 -0.9749 -0.8364
17161SOL     OW52923   4.633   6.299   0.886  0.3535  0.2232  0.0788
17161SOL    HW152924   4.705   6.352   0.851 -0.4796  2.3582  1.3350
17161SOL    HW252925   4.638   6.217   0.839  2.0398  1.2541 -1.6973
17162SOL     OW52926   5.456   5.396  11.012  0.1685  0.2084  0.3448
17162SOL    HW152927   5.517   5.365  11.079 -1.1834 -1.6120  0.8145
17162SOL    HW252928   5.493   5.364  10.930  1.1767  1.3920  0.2914
17163SOL     OW52929   2.207   4.639   3.483 -0.4831 -0.8151 -0.3444
17163SOL    HW152930   2.142   4.677   3.423 -0.4306  0.7500  0.5164
17163SOL    HW252931   2.225   4.552   3.448 -1.7819 -0.6281 -1.5649
17164SOL     OW52932   1.755   0.846  10.034 -0.7235  0.2301 -0.1349
17164SOL    HW152933   1.743   0.784  10.107 -0.5657 -2.1011 -1.9615
17164SOL    HW252934   1.839   0.821   9.996 -1.3687  0.5560 -1.8584
17165SOL     OW52935   5.560   0.171   4.637  0.3426  0.1479 -0.5934
17165SOL    HW152936   5.513   0.118   4.702 -1.5970 -0.8491 -2.6692
17165SOL    HW252937   5.573   0.256   4.680 -0.2436 -0.6795  1.3148
17166SOL     OW52938   6.581   6.358   8.043  0.0020  0.0995  0.0304
17166SOL    HW152939   6.556   6.269   8.018 -0.0502  0.2516 -0.4640
17166SOL    HW252940   6.508   6.390   8.096 -0.7555  0.4394 -1.1669
17167SOL     OW52941   1.624   4.844   0.344  0.3328  0.5419 -0.1744
17167SOL    HW152942   1.626   4.929   0.388 -1.5381  0.1380  0.8088
17167SOL    HW252943   1.590   4.863   0.257 -1.9405  0.6280  0.6696
17168SOL     OW52944   4.899   6.050   1.071  0.5034 -0.5881 -0.3799
17168SOL    HW152945   4.813   6.009   1.073 -0.1728  0.7270 -1.1899
17168SOL    HW252946   4.927   6.044   0.980  0.1887  1.0789 -0.6206
17169SOL     OW52947   0.974   1.394   0.183  0.0283 -0.0256  0.4409
17169SOL    HW152948   1.026   1.415   0.106 -1.1544 -0.2994 -0.4623
17169SOL    HW252949   0.921   1.318   0.157  0.5428 -0.9696  1.9570
17170SOL     OW52950   1.629   2.168  12.381  0.2784 -0.7773  0.1281
17170SOL    HW152951   1.672   2.232  12.438 -0.8035 -0.0977  0.2100
17170SOL    HW252952   1.701   2.116  12.346  0.9709 -1.3767  2.2803
17171SOL     OW52953   2.500   4.280   9.034 -0.5087  0.6109  0.2049
17171SOL    HW152954   2.423   4.255   9.084 -0.9852  0.6349 -0.4948
17171SOL    HW252955   2.539   4.197   9.006 -1.1511  0.5991 -0.7160
17172SOL     OW52956   6.447   1.377  10.664 -0.2372 -0.2747 -0.2546
17172SOL    HW152957   6.466   1.439  10.734 -0.5277 -0.0355 -0.3879
17172SOL    HW252958   6.510   1.399  10.595 -1.3116  0.8684 -0.9103
17173SOL     OW52959   2.188   2.710   5.709 -0.0981  0.0587 -0.0754
17173SOL    HW152960   2.220   2.666   5.630 -1.2415 -0.2331 -0.3984
17173SOL    HW252961   2.237   2.669   5.780 -1.0010 -1.6349 -0.3840
17174SOL     OW52962   3.250   4.707   0.121 -0.4093  0.1291  0.4589
17174SOL    HW152963   3.213   4.710   0.209 -0.9970  0.0499  0.2180
17174SOL    HW252964   3.240   4.615   0.094 -2.1075  0.5653 -0.4770
17175SOL     OW52965   3.690   1.092  11.627 -0.8061  0.4655  0.1863
17175SOL    HW152966   3.654   1.020  11.577 -0.0100  0.2718 -0.1282
17175SOL    HW252967   3.661   1.171  11.581  0.4115  0.2837 -0.9720
17176SOL     OW52968   4.246   0.511  11.158 -0.2756 -0.5047 -0.4386
17176SOL    HW152969   4.314   0.574  11.133  0.6647 -1.0293  0.6740
17176SOL    HW252970   4.263   0.434  11.104 -1.6404  0.2633 -2.0517
17177SOL     OW52971   5.438   0.987   1.420 -0.2600 -0.5311  0.2858
17177SOL    HW152972   5.450   1.071   1.376 -0.5495 -0.2947  0.6486
17177SOL    HW252973   5.482   0.924   1.364 -0.6430 -0.2426 -0.3500
17178SOL     OW52974   1.235   6.829   9.408  0.4347  0.8812  0.2596
17178SOL    HW152975   1.281   6.773   9.346 -0.3571 -0.8025  1.1270
17178SOL    HW252976   1.160   6.862   9.359 -0.2852 -0.5793  0.3150
17179SOL     OW52977   1.141   2.031   1.333  0.2026 -0.4189 -0.0633
17179SOL    HW152978   1.165   2.050   1.424 -0.1276 -0.6446  0.0718
17179SOL    HW252979   1.151   1.936   1.325  2.3017 -0.1753 -0.8725
17180SOL     OW52980   6.416   5.746   9.776  0.2035  0.5408 -0.7568
17180SOL    HW152981   6.350   5.755   9.707  0.7657  1.8712 -1.1516
17180SOL    HW252982   6.365   5.740   9.856 -0.4710 -1.2228 -1.2659
17181SOL     OW52983   2.493   2.129   6.624 -0.6281  0.4033  0.0673
17181SOL    HW152984   2.404   2.162   6.631 -0.4462  0.8011  0.5909
17181SOL    HW252985   2.487   2.038   6.652 -0.9296  0.3177 -0.2628
17182SOL     OW52986   6.391   0.715   0.393  0.2607 -0.2827 -0.6411
17182SOL    HW152987   6.399   0.625   0.425  2.9637  0.0877 -0.0249
17182SOL    HW252988   6.311   0.748   0.433 -0.3159 -2.1317 -0.1730
17183SOL     OW52989   1.602   4.839  11.398 -0.1706 -0.6026  0.1577
17183SOL    HW152990   1.626   4.804  11.312  0.9049  0.9326 -0.2086
17183SOL    HW252991   1.508   4.853  11.392 -0.1425 -0.6916 -0.6951
17184SOL     OW52992   0.682   4.431  12.316 -0.0825 -0.0185 -0.1487
17184SOL    HW152993   0.644   4.440  12.229 -1.7929 -2.1939  0.2887
17184SOL    HW252994   0.639   4.499  12.368 -0.5165  0.0256 -0.5616
17185SOL     OW52995   3.263   0.530   3.248 -0.2130  0.5533 -0.2204
17185SOL    HW152996   3.277   0.437   3.230  0.7603  0.5576  0.3977
17185SOL    HW252997   3.336   0.554   3.305 -0.8009  1.5507  0.1372
17186SOL     OW52998   2.332   1.505   6.830 -0.1635  0.4578  0.4096
17186SOL    HW152999   2.296   1.443   6.894 -1.0163  0.2228 -0.2759
17186SOL    HW253000   2.361   1.579   6.883  0.7037 -0.4398  1.2245
17187SOL     OW53001   5.931   5.408   3.017 -0.0061  0.5613 -0.1090
17187SOL    HW153002   5.956   5.343   2.951  1.0365 -0.3939  1.1792
17187SOL    HW253003   5.843   5.435   2.992 -0.1241 -0.7162 -1.1736
17188SOL     OW53004   6.243   3.842   6.535 -0.5775 -0.2371 -0.2010
17188SOL    HW153005   6.218   3.900   6.463 -0.6655 -2.8303 -2.4229
17188SOL    HW253006   6.338   3.845   6.536 -0.5139 -1.1779 -1.3734
17189SOL     OW53007   1.179   0.814   6.220  0.2005 -0.2126  0.0581
17189SOL    HW153008   1.085   0.802   6.206  0.3321 -1.3931  0.0811
17189SOL    HW253009   1.208   0.732   6.260  0.9196  0.8214  1.7725
17190SOL     OW53010   7.863   0.653   6.091 -0.2407  0.6706 -0.5689
17190SOL    HW153011   7.784   0.650   6.036 -0.2547  0.3536 -0.5376
17190SOL    HW253012   7.893   0.562   6.094 -0.2635  0.6789 -0.0152
17191SOL     OW53013   1.137   3.521   9.891  0.6692 -0.3907  0.1425
17191SOL    HW153014   1.058   3.480   9.926 -0.6085  0.5680 -1.4833
17191SOL    HW253015   1.145   3.603   9.940  0.4696 -0.3357  0.0844
17192SOL     OW53016   7.589   5.578   4.891  0.4969  0.5406  0.2834
17192SOL    HW153017   7.608   5.621   4.975 -0.2726  1.2799  0.0948
17192SOL    HW253018   7.587   5.485   4.913  2.1904  0.5685  0.6991
17193SOL     OW53019   6.300   1.447   8.778 -0.4155 -0.0874 -0.2559
17193SOL    HW153020   6.271   1.534   8.804 -0.9125  0.1546 -1.5758
17193SOL    HW253021   6.354   1.461   8.701  2.0371 -0.6921  1.2334
17194SOL     OW53022   3.814   6.822   2.298  0.0627  0.2036 -0.2619
17194SOL    HW153023   3.818   6.731   2.326 -0.9070  0.6097  1.3104
17194SOL    HW253024   3.745   6.823   2.232 -0.5421 -0.0677  0.3534
17195SOL     OW53025   2.381   4.049   9.409 -0.1120  0.5202 -0.5017
17195SOL    HW153026   2.321   3.989   9.365  0.0396  0.0161 -0.0163
17195SOL    HW253027   2.385   4.125   9.350 -0.7200  0.2905 -0.8533
17196SOL     OW53028   3.468   7.619  11.209  0.0249  0.6554  0.1343
17196SOL    HW153029   3.383   7.599  11.248  0.0697 -2.3998 -1.0848
17196SOL    HW253030   3.529   7.558  11.249  1.0710  0.8825 -1.0410
17197SOL     OW53031   5.375   5.555  11.980  0.2822 -0.2632  0.2137
17197SOL    HW153032   5.320   5.484  11.947  1.3365 -0.0326 -2.2287
17197SOL    HW253033   5.448   5.510  12.023 -0.9489 -0.5715  2.0942
17198SOL     OW53034   7.250   0.353   5.627 -0.1141  0.1777  0.3956
17198SOL    HW153035   7.220   0.327   5.540  0.0232  1.1083  0.0524
17198SOL    HW253036   7.171   0.353   5.681 -0.7423  2.2544 -0.4091
17199SOL     OW53037   6.356   5.073   3.544 -0.1608 -0.3048 -0.0877
17199SOL    HW153038   6.408   5.146   3.578 -1.5939  1.1635 -0.8849
17199SOL    HW253039   6.288   5.059   3.610 -0.1101 -0.6777 -0.1130
17200SOL     OW53040   4.651   6.488   7.882  0.2718  0.1953 -0.1287
17200SOL    HW153041   4.732   6.538   7.878 -0.6169  1.6243 -2.3647
17200SOL    HW253042   4.660   6.421   7.814  0.2903 -0.8710  0.8884
17201SOL     OW53043   6.624   4.917   0.679  0.2235 -0.2398  0.1735
17201SOL    HW153044   6.597   4.981   0.745  0.2648  1.0568 -1.0319
17201SOL    HW253045   6.680   4.855   0.728  0.3881  0.7687  1.3203
17202SOL     OW53046   2.603   1.007   3.418 -0.0394  0.1094  0.2475
17202SOL    HW153047   2.553   1.088   3.417 -0.5493 -0.1915 -1.7219
17202SOL    HW253048   2.537   0.938   3.408  0.7011 -0.2518 -3.5773
17203SOL     OW53049   3.651   1.728   9.159  0.3897 -0.2914  0.2359
17203SOL    HW153050   3.711   1.681   9.217 -0.2652 -0.7132  0.5812
17203SOL    HW253051   3.621   1.803   9.211 -0.5781 -0.9393  0.6396
17204SOL     OW53052   7.646   0.384   9.079  0.0993  0.1580 -0.4547
17204SOL    HW153053   7.551   0.397   9.084  0.1576  1.4448 -1.9129
17204SOL    HW253054   7.682   0.432   9.153 -0.3382  0.3140 -0.3422
17205SOL     OW53055   4.764   3.251   2.185  0.1525 -0.5653  0.0151
17205SOL    HW153056   4.852   3.281   2.207  0.8520 -0.8209 -2.2363
17205SOL    HW253057   4.709   3.283   2.257  1.5696  2.2500 -0.0423
17206SOL     OW53058   3.416   5.650   3.826 -0.2099  0.0254 -0.1401
17206SOL    HW153059   3.435   5.744   3.835 -1.3076  0.2987 -0.5133
17206SOL    HW253060   3.428   5.632   3.733  2.7919 -0.8868  0.3160
17207SOL     OW53061   4.485   4.794   2.574 -0.1095  0.1321 -0.1128
17207SOL    HW153062   4.486   4.876   2.525  1.5643  0.6479  0.7198
17207SOL    HW253063   4.530   4.732   2.517 -0.5130  0.0238 -0.3235
17208SOL     OW53064   6.760   1.593   5.735  0.4912  0.5114  0.0170
17208SOL    HW153065   6.736   1.550   5.818  1.5022 -2.2863 -1.0145
17208SOL    HW253066   6.690   1.657   5.721 -1.6406 -1.3292  1.3492
17209SOL     OW53067   5.963   4.355   6.081 -0.0079 -0.2622  0.1853
17209SOL    HW153068   5.947   4.265   6.112  1.6295  0.5275  3.9203
17209SOL    HW253069   5.885   4.377   6.030 -1.6817 -2.9257  1.3568
17210SOL     OW53070   1.401   5.267   1.124 -0.2670 -0.0748  0.3321
17210SOL    HW153071   1.365   5.291   1.209 -1.5944  0.4564 -0.3539
17210SOL    HW253072   1.451   5.343   1.097  0.8804 -0.5666  0.9934
17211SOL     OW53073   3.970   3.469   0.635  0.2385  0.2311  0.5496
17211SOL    HW153074   3.992   3.497   0.546 -2.7301  1.1918 -0.0131
17211SOL    HW253075   3.985   3.547   0.689 -0.4793  0.5002  0.3789
17212SOL     OW53076   5.363   2.129   3.705 -0.0211 -0.1967  0.0539
17212SOL    HW153077   5.375   2.148   3.612  0.1622 -2.8218 -0.5535
17212SOL    HW253078   5.319   2.206   3.740 -0.7403  0.5865 -2.3498
17213SOL     OW53079   3.223   4.714   1.758 -0.1077 -0.0432  0.4667
17213SOL    HW153080   3.295   4.725   1.821 -0.0042 -1.1574  0.5592
17213SOL    HW253081   3.185   4.629   1.780 -1.4993  0.5477  0.4481
17214SOL     OW53082   2.070   3.572   9.264 -0.5261  0.0074 -0.0062
17214SOL    HW153083   2.059   3.666   9.248  0.3891 -0.1493 -1.8900
17214SOL    HW253084   1.985   3.534   9.244 -0.7045  0.3634  0.0703
17215SOL     OW53085   2.279   3.546   3.352  0.5191  0.2158  0.2324
17215SOL    HW153086   2.342   3.544   3.280  0.0468 -1.0355 -0.1732
17215SOL    HW253087   2.265   3.453   3.374  1.1935  0.5615  2.4202
17216SOL     OW53088   4.972   6.847   4.685 -0.0057  0.2929 -0.0545
17216SOL    HW153089   4.971   6.790   4.761  0.2903 -0.0408 -0.2957
17216SOL    HW253090   4.891   6.897   4.690  0.7973  1.5327  1.4223
17217SOL     OW53091   3.616   0.918   9.634 -0.1010  0.1472  0.2159
17217SOL    HW153092   3.699   0.891   9.673 -0.1289 -0.0952  0.1150
17217SOL    HW253093   3.561   0.943   9.708 -0.9765 -2.5644  0.5940
17218SOL     OW53094   6.719   3.658   4.298 -0.2161  0.1335 -0.1208
17218SOL    HW153095   6.644   3.708   4.266  0.0324 -0.2977 -1.4609
17218SOL    HW253096   6.777   3.724   4.337 -1.2177  0.4796  0.8113
17219SOL     OW53097   1.318   3.416   7.205  0.2906 -0.0595  0.3876
17219SOL    HW153098   1.337   3.430   7.112 -0.4370 -1.7142 -0.0452
17219SOL    HW253099   1.291   3.501   7.237  0.5860  0.5526 -0.9152
17220SOL     OW53100   4.854   5.356  11.535 -0.0336  0.1500 -0.2639
17220SOL    HW153101   4.829   5.298  11.607  0.1298  0.4130  0.0040
17220SOL    HW253102   4.771   5.380  11.493 -0.3081  1.4766  0.9600
17221SOL     OW53103   1.401   1.713  10.431 -0.1356  0.2218  0.0826
17221SOL    HW153104   1.372   1.699  10.520  0.5949 -0.6297  0.1978
17221SOL    HW253105   1.464   1.785  10.438  0.7892 -0.5937  0.4505
17222SOL     OW53106   7.712   2.644   3.345 -0.3203  0.5451 -0.1300
17222SOL    HW153107   7.692   2.713   3.408 -0.2625  0.1686  0.3126
17222SOL    HW253108   7.803   2.661   3.319  0.0902 -0.0073  0.8476
17223SOL     OW53109   3.838   7.622   5.566  0.3190  0.1843  0.0717
17223SOL    HW153110   3.918   7.569   5.565 -1.0401 -1.9810  0.2981
17223SOL    HW253111   3.797   7.602   5.650 -0.6087  1.0660 -0.1479
17224SOL     OW53112   7.157   4.706   4.356 -0.1100 -0.1620 -0.0170
17224SOL    HW153113   7.075   4.668   4.323  0.6274 -2.2242  0.3448
17224SOL    HW253114   7.179   4.652   4.432  0.9787  1.1318  0.6245
17225SOL     OW53115   2.259   1.716   1.316  0.1226  0.3622  0.5775
17225SOL    HW153116   2.190   1.758   1.265  0.5105  1.1001  0.6441
17225SOL    HW253117   2.339   1.731   1.266  0.5642  1.3739  1.5331
17226SOL     OW53118   5.361   3.092   2.670 -0.2232  0.0892 -0.3816
17226SOL    HW153119   5.382   3.184   2.684 -1.5734  0.4428 -0.5551
17226SOL    HW253120   5.266   3.090   2.662 -0.1947 -1.2945 -0.6072
17227SOL     OW53121   6.176   2.288   0.909 -0.2481 -0.2865  0.2587
17227SOL    HW153122   6.157   2.316   0.820  0.5299  1.4049  0.5728
17227SOL    HW253123   6.115   2.338   0.964 -0.4387 -0.9924  0.7045
17228SOL     OW53124   0.624   0.308   3.130 -0.4145 -0.0449  0.2328
17228SOL    HW153125   0.630   0.348   3.043  0.2404 -0.2975  0.1512
17228SOL    HW253126   0.694   0.350   3.180 -2.6340  2.3213  1.5968
17229SOL     OW53127   1.350   7.289   3.521 -0.4945 -0.2432 -0.8244
17229SOL    HW153128   1.443   7.290   3.543 -0.4381 -0.8104 -1.0315
17229SOL    HW253129   1.339   7.211   3.466 -1.1907 -0.4778 -0.3594
17230SOL     OW53130   3.029   3.131   9.220  0.2064  0.0003 -0.2116
17230SOL    HW153131   3.031   3.227   9.221  0.8481 -0.0103 -0.1332
17230SOL    HW253132   2.940   3.109   9.248 -0.0461  0.5753 -0.5340
17231SOL     OW53133   6.411   2.682   4.979  0.4280  0.1847  0.2252
17231SOL    HW153134   6.407   2.695   4.884  0.5602 -2.0516 -0.1526
17231SOL    HW253135   6.343   2.739   5.014  0.7298  1.4583 -1.1407
17232SOL     OW53136   5.493   5.913   8.800 -0.5727 -0.0188 -0.3435
17232SOL    HW153137   5.480   5.828   8.840  1.0409 -0.6957 -1.1717
17232SOL    HW253138   5.449   5.908   8.716 -0.3576 -0.0896 -0.4528
17233SOL     OW53139   0.008   4.047   3.456 -0.0331  0.0647 -0.2851
17233SOL    HW153140  -0.077   4.072   3.491 -1.3330  1.3790 -3.9599
17233SOL    HW253141  -0.006   3.962   3.415  1.6545 -1.8179  2.5998
17234SOL     OW53142   2.801   5.854   9.008 -0.1687 -0.0393  0.5681
17234SOL    HW153143   2.883   5.896   8.980  0.6361 -0.8179  1.6673
17234SOL    HW253144   2.792   5.878   9.100 -1.1316 -0.0474  0.4778
17235SOL     OW53145   7.730   4.333   2.264 -0.4190 -0.0842  0.2156
17235SOL    HW153146   7.720   4.428   2.272 -1.5882 -0.1988  0.2202
17235SOL    HW253147   7.779   4.321   2.183 -0.6027  0.5081  0.0103
17236SOL     OW53148   0.762   6.564   5.314  0.0121 -0.2339 -0.0072
17236SOL    HW153149   0.814   6.533   5.388 -1.2753 -1.1033  0.5723
17236SOL    HW253150   0.807   6.643   5.284 -0.2759  1.0739  2.7106
17237SOL     OW53151   7.368   7.244   9.122 -0.1009 -0.2782  0.1644
17237SOL    HW153152   7.352   7.151   9.112 -1.0805  0.0605 -2.5022
17237SOL    HW253153   7.434   7.264   9.055  0.1259  0.9193  0.7202
17238SOL     OW53154   7.560   0.363  11.474  0.0456  0.1828  0.1751
17238SOL    HW153155   7.647   0.392  11.503 -0.1084 -0.1541  0.9896
17238SOL    HW253156   7.499   0.415  11.525 -0.2562  0.9024 -0.8816
17239SOL     OW53157   1.462   3.963   2.363  0.1942 -0.2048  0.5042
17239SOL    HW153158   1.414   3.881   2.352  0.9634 -0.4853 -0.9969
17239SOL    HW253159   1.529   3.942   2.428  0.6624 -0.9184 -0.1841
17240SOL     OW53160   0.669   7.813   6.434  0.0204  0.1351 -0.6425
17240SOL    HW153161   0.722   7.859   6.369  0.8962  2.8991  1.8452
17240SOL    HW253162   0.584   7.858   6.432 -0.4452 -0.7270 -0.8509
17241SOL     OW53163   1.147   6.809   1.015 -0.1653  0.4818  0.1935
17241SOL    HW153164   1.081   6.760   1.064  0.6339 -0.8246  0.0145
17241SOL    HW253165   1.191   6.743   0.961  0.6228  1.4845 -0.4351
17242SOL     OW53166   7.131   3.637   3.126  0.8109  0.6784  0.4382
17242SOL    HW153167   7.068   3.702   3.157 -1.0795 -1.7502  2.1186
17242SOL    HW253168   7.084   3.589   3.058  1.1712 -0.5749  1.0492
17243SOL     OW53169   0.048   3.775   3.388 -0.1201  0.4272 -0.5336
17243SOL    HW153170  -0.010   3.701   3.408  1.6296 -0.7627  0.4244
17243SOL    HW253171   0.047   3.780   3.292 -0.9827 -0.2447 -0.5752
17244SOL     OW53172   2.194   5.748   0.681  0.1205  0.4608  0.6110
17244SOL    HW153173   2.133   5.821   0.676  0.5229  0.7396 -0.4804
17244SOL    HW253174   2.138   5.671   0.693 -0.4881  0.6693 -0.7574
17245SOL     OW53175   7.463   5.615   8.357 -0.2090 -0.1868  0.0820
17245SOL    HW153176   7.551   5.604   8.321 -0.6273 -0.7932 -0.7972
17245SOL    HW253177   7.442   5.530   8.394 -0.5540 -0.1450 -0.0170
17246SOL     OW53178   5.153   5.528   3.676 -0.7070  0.3419  0.2174
17246SOL    HW153179   5.136   5.621   3.664 -0.0233  0.4810  0.3014
17246SOL    HW253180   5.123   5.488   3.594 -0.7967  0.6637  0.0919
17247SOL     OW53181   5.058   6.485   4.421 -0.0953  0.1520  0.3687
17247SOL    HW153182   5.038   6.453   4.334  0.9238 -0.4443  0.3401
17247SOL    HW253183   5.058   6.407   4.476  0.0317  0.4174  0.7515
17248SOL     OW53184   5.188   2.247  11.133  0.4532 -0.3578  0.0268
17248SOL    HW153185   5.277   2.222  11.158  0.3978 -4.5872 -2.8740
17248SOL    HW253186   5.137   2.235  11.212  2.1221 -0.0111  1.2105
17249SOL     OW53187   1.189   1.672   5.453  0.3042 -0.4544 -0.0114
17249SOL    HW153188   1.281   1.694   5.465  0.4005 -1.0535  0.3638
17249SOL    HW253189   1.142   1.734   5.509  0.6010 -1.4401  1.3758
17250SOL     OW53190   7.129   4.294  11.245  0.4668  0.0734 -0.3356
17250SOL    HW153191   7.097   4.250  11.166 -0.9860 -1.5254  1.0560
17250SOL    HW253192   7.203   4.240  11.274 -0.2096 -0.4721  0.4145
17251SOL     OW53193   0.452   1.393  11.901 -0.0994 -0.7939  0.1511
17251SOL    HW153194   0.429   1.481  11.930  0.1841 -0.4184 -0.7171
17251SOL    HW253195   0.531   1.405  11.848 -0.1629 -1.5412 -0.1368
17252SOL     OW53196   3.696   2.051   2.412  0.3889  0.0819 -0.3241
17252SOL    HW153197   3.767   2.072   2.472  1.3372  0.0379 -1.4006
17252SOL    HW253198   3.695   1.955   2.410 -0.4528  0.0511  0.5261
17253SOL     OW53199   5.117   0.070   2.774 -0.0298 -0.2324  0.0001
17253SOL    HW153200   5.203   0.037   2.750  0.3843  0.6466  0.2366
17253SOL    HW253201   5.123   0.086   2.869 -0.0659  0.9128 -0.1697
17254SOL     OW53202   7.138   4.483  11.846 -0.2975  0.1859  0.0854
17254SOL    HW153203   7.066   4.511  11.789 -0.0082  0.8007  0.0111
17254SOL    HW253204   7.216   4.489  11.791 -0.1008  0.1683  0.3619
17255SOL     OW53205   2.440   0.896   8.528  0.8705 -0.3962  0.3528
17255SOL    HW153206   2.374   0.833   8.497  1.2432  0.2198 -1.8380
17255SOL    HW253207   2.455   0.871   8.620 -1.3094 -1.4696  0.4840
17256SOL     OW53208   0.251   1.979  12.109 -0.7604 -0.5988  0.1392
17256SOL    HW153209   0.307   1.976  12.031 -1.7193 -0.1982 -0.5862
17256SOL    HW253210   0.179   1.919  12.089 -2.6362  1.7416 -0.6144
17257SOL     OW53211   2.215   7.198   1.338  0.0018 -0.0999 -0.3332
17257SOL    HW153212   2.257   7.265   1.284 -0.9033  0.1300 -0.7728
17257SOL    HW253213   2.277   7.125   1.338  0.5168  0.3311 -0.7480
17258SOL     OW53214   5.775   2.022   3.154 -0.4155  0.4007  0.3368
17258SOL    HW153215   5.703   1.964   3.177  0.0914  0.1571  1.3598
17258SOL    HW253216   5.851   1.963   3.146 -0.0923  0.7980  0.4423
17259SOL     OW53217   0.531   7.647  10.499 -0.4646  0.7035 -0.4470
17259SOL    HW153218   0.490   7.682  10.420  0.6296  1.4699 -0.6897
17259SOL    HW253219   0.615   7.612  10.470 -1.0045 -1.1016 -0.0057
17260SOL     OW53220   3.935   3.330   1.542  0.6486 -0.2011 -0.0855
17260SOL    HW153221   3.850   3.372   1.533  1.1337  0.4874 -1.9369
17260SOL    HW253222   3.942   3.308   1.635 -1.6566 -0.5363  0.0556
17261SOL     OW53223   5.327   2.050  10.110  0.4113  0.1055  0.2593
17261SOL    HW153224   5.338   1.958  10.134 -0.8087 -0.1259 -0.0146
17261SOL    HW253225   5.258   2.051  10.045  1.7363  1.0343 -1.2241
17262SOL     OW53226   3.216   0.720   4.027 -0.2681 -0.1963 -0.1574
17262SOL    HW153227   3.172   0.717   3.941  1.7175  2.1241 -1.3731
17262SOL    HW253228   3.160   0.778   4.080 -0.0365  0.7004 -0.8647
17263SOL     OW53229   0.339   0.604   7.131 -0.2986  0.1802 -0.6192
17263SOL    HW153230   0.379   0.690   7.143  0.4887 -0.3388  0.8001
17263SOL    HW253231   0.396   0.558   7.069  1.1540 -0.3860  1.0269
17264SOL     OW53232   3.503   5.299   3.631  0.0775 -0.3527 -0.6094
17264SOL    HW153233   3.478   5.238   3.700 -0.1438  0.3302 -0.0776
17264SOL    HW253234   3.420   5.321   3.588  0.1444 -0.3601 -0.7413
17265SOL     OW53235   1.812   6.814   5.100  0.0354  0.1114  0.1227
17265SOL    HW153236   1.907   6.828   5.101 -0.1967  1.9721  1.3571
17265SOL    HW253237   1.777   6.882   5.158 -2.1188 -0.0894 -0.8431
17266SOL     OW53238   5.978   6.666   2.270  0.3909  0.1916 -0.0984
17266SOL    HW153239   6.055   6.710   2.232  0.8202  0.5585  1.1484
17266SOL    HW253240   6.005   6.574   2.277  0.4973  0.2138 -0.2043
17267SOL     OW53241   0.444   1.474   3.355 -0.4969  0.0592  0.4372
17267SOL    HW153242   0.453   1.409   3.425  1.4859  0.7935  0.9392
17267SOL    HW253243   0.528   1.470   3.309 -1.1407  0.8010 -0.8503
17268SOL     OW53244   5.820   3.560   1.917  0.1865  0.8301  0.0844
17268SOL    HW153245   5.813   3.585   1.825 -0.6805 -0.7204 -0.3074
17268SOL    HW253246   5.729   3.550   1.946  0.4482 -1.3363  0.3065
17269SOL     OW53247   4.099   1.932   6.347  0.3250  0.3346 -0.0509
17269SOL    HW153248   4.077   1.973   6.263 -1.2675 -0.9820 -0.3296
17269SOL    HW253249   4.049   1.983   6.411 -2.3968 -1.5479 -0.4939
17270SOL     OW53250   5.453   6.143   4.941 -0.6686 -0.0245  0.5045
17270SOL    HW153251   5.510   6.218   4.959  0.8335 -0.9802 -0.0701
17270SOL    HW253252   5.449   6.095   5.024 -1.1100  0.3469  0.6995
17271SOL     OW53253   4.758   6.562   0.736 -0.2709 -0.0509  0.3492
17271SOL    HW153254   4.849   6.545   0.760 -0.0926 -0.6059 -0.6445
17271SOL    HW253255   4.725   6.620   0.804  1.4787  2.0065 -0.4481
17272SOL     OW53256   6.876   1.119   9.464  0.3388  0.1768 -0.4903
17272SOL    HW153257   6.949   1.060   9.484  0.6324  1.0672  1.3086
17272SOL    HW253258   6.799   1.074   9.498  0.4048  0.2858 -0.1863
17273SOL     OW53259   4.001   5.349  10.600 -0.1438  0.0711  0.3752
17273SOL    HW153260   3.937   5.278  10.604  0.2671 -0.3612 -0.5016
17273SOL    HW253261   3.952   5.428  10.624 -0.9056 -0.3114  0.0825
17274SOL     OW53262   2.472   5.389  12.016 -0.1720 -0.2075  0.1124
17274SOL    HW153263   2.565   5.371  12.029  0.0116 -0.0568 -0.8913
17274SOL    HW253264   2.458   5.474  12.058 -0.0380 -0.5793  0.9280
17275SOL     OW53265   2.630   7.781   1.863 -0.5983 -0.0263  0.0557
17275SOL    HW153266   2.719   7.810   1.882  0.0300 -3.0547  2.5168
17275SOL    HW253267   2.640   7.690   1.834 -2.8602 -0.6627  1.0566
17276SOL     OW53268   3.960   6.842   4.772  0.0403  0.0620  0.1341
17276SOL    HW153269   4.010   6.760   4.768  0.6425  0.4563 -2.1225
17276SOL    HW253270   3.869   6.815   4.763  0.3429 -0.3423 -2.6211
17277SOL     OW53271   0.700   1.535   0.545 -0.7142 -0.1042 -0.2831
17277SOL    HW153272   0.698   1.628   0.567 -0.0624 -0.3282  0.7712
17277SOL    HW253273   0.622   1.499   0.587 -1.3699  0.0737 -1.3012
17278SOL     OW53274   5.524   2.016  11.084  0.4943 -0.0579  0.2043
17278SOL    HW153275   5.453   2.015  11.149 -0.2500  0.1280 -0.5964
17278SOL    HW253276   5.518   1.931  11.040  0.8603 -0.0934  0.2114
17279SOL     OW53277   7.073   6.210  11.139 -0.2601 -0.3368  0.5579
17279SOL    HW153278   7.070   6.298  11.101 -1.7903 -0.5239  0.1956
17279SOL    HW253279   7.018   6.157  11.082  0.6744 -1.5581  0.7524
17280SOL     OW53280   4.438   0.019   2.494 -0.3365  0.1943  0.1652
17280SOL    HW153281   4.443   0.048   2.403  1.3726 -0.7538 -0.0937
17280SOL    HW253282   4.526  -0.016   2.512 -1.3557 -1.8757  1.4162
17281SOL     OW53283   2.557   1.367  11.124 -0.2552 -0.2031  0.3879
17281SOL    HW153284   2.571   1.381  11.217 -0.8944  1.4998  0.2699
17281SOL    HW253285   2.467   1.396  11.108 -0.4842 -1.3792 -0.5970
17282SOL     OW53286   3.499   6.267   2.344  0.1536  0.0746 -0.2484
17282SOL    HW153287   3.562   6.319   2.294 -1.4714  1.1039 -1.2970
17282SOL    HW253288   3.422   6.261   2.288 -0.8969 -0.7169  1.2057
17283SOL     OW53289   0.071   2.694   8.567 -0.0824 -0.0402  0.1153
17283SOL    HW153290   0.146   2.752   8.574 -0.8488  0.7670  3.3726
17283SOL    HW253291   0.003   2.748   8.527  0.1904  0.2103 -0.0159
17284SOL     OW53292   1.315   4.365  11.697  0.0116  0.1913  0.3310
17284SOL    HW153293   1.353   4.377  11.784 -0.7713 -0.1838  0.7372
17284SOL    HW253294   1.312   4.270  11.685  0.1489  0.2410 -0.1231
17285SOL     OW53295   5.028   4.796   6.589 -0.5729 -0.3669  0.4520
17285SOL    HW153296   4.963   4.725   6.591 -0.0768 -0.8990 -0.9846
17285SOL    HW253297   5.086   4.773   6.516  1.7325 -0.3302  2.1736
17286SOL     OW53298   5.142   4.643   0.000  0.2091 -0.0874 -0.7996
17286SOL    HW153299   5.151   4.598  -0.084 -1.9154  0.3653 -1.3217
17286SOL    HW253300   5.061   4.609   0.038  1.2855 -0.5391  1.2825
17287SOL     OW53301   0.279   1.894   7.950 -0.5424  0.2137 -0.4284
17287SOL    HW153302   0.227   1.931   8.021 -1.1392  2.4598 -1.9298
17287SOL    HW253303   0.343   1.962   7.929  0.2081 -0.7685 -1.4583
17288SOL     OW53304   6.015   6.379  11.262  0.2312 -0.6468  0.0386
17288SOL    HW153305   6.022   6.320  11.337  0.9083  1.1129  1.4103
17288SOL    HW253306   6.102   6.378  11.222  0.4532 -0.0487  0.4944
17289SOL     OW53307   4.044   2.586   8.715 -0.4654 -0.5410  0.3255
17289SOL    HW153308   3.957   2.563   8.681  0.7747 -2.0499 -2.1491
17289SOL    HW253309   4.068   2.665   8.666  0.7474 -1.9080 -1.4264
17290SOL     OW53310   5.110   5.987   6.359  0.1462 -0.5273 -0.5237
17290SOL    HW153311   5.103   6.016   6.268 -0.9972 -0.6530 -0.4856
17290SOL    HW253312   5.198   6.014   6.385  0.4651 -0.4201 -1.6379
17291SOL     OW53313   1.385   5.036   9.633  0.6770  0.5167  0.5497
17291SOL    HW153314   1.434   4.988   9.566 -0.7423  0.8570 -0.7857
17291SOL    HW253315   1.305   4.985   9.646 -1.1330  2.6794 -1.3067
17292SOL     OW53316   2.748   3.078   9.237  0.7697  0.0078  0.0900
17292SOL    HW153317   2.707   3.118   9.314  1.1730  0.0993  0.2632
17292SOL    HW253318   2.697   3.109   9.163  0.3508 -0.1136  0.3253
17293SOL     OW53319   0.422   7.847   0.622 -0.1743 -0.0113  0.3697
17293SOL    HW153320   0.435   7.790   0.697  2.1377  0.9654  0.7768
17293SOL    HW253321   0.368   7.919   0.656 -1.3930 -0.9013  0.3656
17294SOL     OW53322   4.889   3.391   3.100  0.1421 -0.3332  0.6232
17294SOL    HW153323   4.828   3.463   3.080  0.7969 -0.3370 -1.7068
17294SOL    HW253324   4.846   3.341   3.169 -1.6323  0.7198  0.3385
17295SOL     OW53325   3.437   2.084   0.773 -0.0984  0.2049 -0.1982
17295SOL    HW153326   3.358   2.039   0.802 -0.0929  0.4153  0.1600
17295SOL    HW253327   3.460   2.044   0.690  0.6026 -1.2983  0.6826
17296SOL     OW53328   4.263   4.598   9.921  0.3337 -0.3301 -0.2200
17296SOL    HW153329   4.315   4.640   9.989  0.9079 -2.4132  0.7152
17296SOL    HW253330   4.327   4.552   9.867 -0.3838 -1.7202  0.0685
17297SOL     OW53331   7.143   6.422   9.012  0.2738  0.1051  0.4691
17297SOL    HW153332   7.126   6.419   9.106  0.7035  0.9456  0.5803
17297SOL    HW253333   7.140   6.515   8.990  1.8695  0.0690 -0.0224
17298SOL     OW53334   1.414   3.860   6.947  0.2477  0.4372 -0.1473
17298SOL    HW153335   1.353   3.876   6.875 -0.1452  1.5883  0.4149
17298SOL    HW253336   1.358   3.848   7.024  0.6172 -1.6999 -0.1424
17299SOL     OW53337   4.684   0.868   1.688  0.2776  0.4608 -0.1990
17299SOL    HW153338   4.738   0.946   1.698  2.5699 -1.0149 -0.2552
17299SOL    HW253339   4.689   0.846   1.595 -0.1665  0.1344 -0.1490
17300SOL     OW53340   5.532   3.110  10.386  0.3181 -0.1657  0.2986
17300SOL    HW153341   5.592   3.036  10.392  0.6110  0.0577  0.1638
17300SOL    HW253342   5.465   3.082  10.325  0.2048 -0.4721  0.5597
17301SOL     OW53343   6.133   0.000   4.623 -0.0486  0.0598 -0.0924
17301SOL    HW153344   6.189  -0.035   4.692  0.1187 -1.4295 -0.9463
17301SOL    HW253345   6.053  -0.053   4.628 -0.2096  0.2335 -0.7629
17302SOL     OW53346   2.249   2.482   1.488 -0.1140 -0.0200 -0.1036
17302SOL    HW153347   2.264   2.417   1.420 -0.1166 -1.2124  0.9936
17302SOL    HW253348   2.336   2.499   1.525 -0.2490 -0.1953  0.3046
17303SOL     OW53349   4.511   6.457   4.825 -0.1353 -0.2204  0.3875
17303SOL    HW153350   4.432   6.404   4.831 -0.8220  0.8059  0.6686
17303SOL    HW253351   4.566   6.427   4.898 -1.6029  1.1408  2.1677
17304SOL     OW53352   3.555   4.984   1.581 -0.4921 -0.0215  0.6005
17304SOL    HW153353   3.633   4.982   1.638 -0.6720  1.4236  0.9305
17304SOL    HW253354   3.486   5.021   1.635 -0.7707  1.0301 -0.4349
17305SOL     OW53355   4.367   1.414   6.831 -0.0308 -0.0568 -0.5759
17305SOL    HW153356   4.412   1.447   6.753 -0.8453  0.0287 -1.0292
17305SOL    HW253357   4.314   1.341   6.798  0.7968 -1.0151  0.1872
17306SOL     OW53358   1.424   7.646   2.967  0.4229  0.0904  0.0028
17306SOL    HW153359   1.332   7.663   2.983  0.5218  0.9344 -0.3200
17306SOL    HW253360   1.465   7.732   2.963  1.2630 -0.2760  0.3553
17307SOL     OW53361   6.552   3.510   4.132 -0.6422 -0.3347 -0.5669
17307SOL    HW153362   6.485   3.578   4.126  0.7425  1.0291 -1.0954
17307SOL    HW253363   6.613   3.543   4.198  0.0824 -1.0319 -0.8803
17308SOL     OW53364   1.818   0.810   0.537 -0.2821  0.0168  0.5805
17308SOL    HW153365   1.792   0.874   0.471  0.4083 -0.4280 -0.1299
17308SOL    HW253366   1.736   0.785   0.580 -0.5700  1.2976  0.7993
17309SOL     OW53367   0.731   0.481   4.398 -0.1441 -0.0858 -0.2891
17309SOL    HW153368   0.771   0.396   4.380 -0.1899 -0.2084  0.1779
17309SOL    HW253369   0.785   0.519   4.467  0.0525  0.3955 -0.7009
17310SOL     OW53370   3.200   4.169  10.140 -0.1793 -0.4542  0.1869
17310SOL    HW153371   3.223   4.255  10.105 -0.3781 -1.4187 -2.5202
17310SOL    HW253372   3.274   4.146  10.197  1.1705  0.3888 -1.1635
17311SOL     OW53373   6.113   3.817   7.258  0.1424  0.1547  0.3534
17311SOL    HW153374   6.067   3.898   7.234  0.6171  0.0524 -1.0291
17311SOL    HW253375   6.048   3.748   7.251  0.5437 -0.0896 -2.2528
17312SOL     OW53376   1.472   1.427   8.348 -0.3860 -0.1994  0.1021
17312SOL    HW153377   1.513   1.471   8.274  0.8674 -0.1514  0.7880
17312SOL    HW253378   1.470   1.335   8.322  2.2119 -0.5665  0.8614
17313SOL     OW53379   1.958   2.564   4.358 -0.1830  0.2411  0.7701
17313SOL    HW153380   1.879   2.576   4.412 -0.2730  0.9006  0.4950
17313SOL    HW253381   2.019   2.630   4.390 -0.0188  0.2384  0.4603
17314SOL     OW53382   1.865   3.165   6.042  0.1023 -0.1466  0.4692
17314SOL    HW153383   1.849   3.140   5.951  1.5319 -1.4469  0.5230
17314SOL    HW253384   1.953   3.130   6.061  0.9544  2.3535  1.5578
17315SOL     OW53385   7.832   0.537   4.380  0.9995 -0.6758 -0.3678
17315SOL    HW153386   7.906   0.596   4.365 -0.1366  1.2922  1.2644
17315SOL    HW253387   7.780   0.542   4.300 -0.2384  2.4241  0.4986
17316SOL     OW53388   2.207   4.282   1.669 -0.1452 -0.0213  0.5431
17316SOL    HW153389   2.178   4.197   1.637 -0.7428 -0.1235  1.3268
17316SOL    HW253390   2.189   4.343   1.597 -2.8489  0.0278  1.1549
17317SOL     OW53391   1.658   1.948   0.284 -0.7998 -0.1119 -0.1214
17317SOL    HW153392   1.673   2.041   0.266  0.3255 -0.2630 -0.0563
17317SOL    HW253393   1.736   1.905   0.249 -0.5562 -0.8569  1.2708
17318SOL     OW53394   4.064   1.998   7.644  0.8017  0.0442  0.4465
17318SOL    HW153395   4.071   1.916   7.693  1.4357  0.3585  0.8930
17318SOL    HW253396   4.034   2.061   7.709 -1.1241 -0.1251 -0.2198
17319SOL     OW53397   2.488   6.287   2.524 -0.3533  0.1937  0.4114
17319SOL    HW153398   2.439   6.210   2.496  0.3830 -1.0743  2.4575
17319SOL    HW253399   2.555   6.253   2.583  0.4436  2.3372  0.8195
17320SOL     OW53400   4.516   4.494  11.801  0.6471  0.1203  0.0293
17320SOL    HW153401   4.461   4.418  11.783  1.4576 -0.2105 -1.1397
17320SOL    HW253402   4.588   4.487  11.738  0.0408  2.5954 -1.0533
17321SOL     OW53403   6.093   7.112  11.301 -0.4277 -0.1363 -0.3308
17321SOL    HW153404   6.074   7.188  11.356  0.1594  0.8359 -1.4148
17321SOL    HW253405   6.033   7.121  11.227  1.1576  0.5730 -1.6025
17322SOL     OW53406   4.447   6.255  12.244  0.8528 -0.7447  0.8827
17322SOL    HW153407   4.361   6.237  12.282  0.3217 -0.4024 -0.1101
17322SOL    HW253408   4.484   6.323  12.300 -0.2353  0.2952  0.3936
17323SOL     OW53409   1.147   7.586  11.000 -0.6083  0.0571 -0.5410
17323SOL    HW153410   1.225   7.538  10.972 -1.0140 -0.8553 -0.1285
17323SOL    HW253411   1.179   7.648  11.066 -0.3749 -1.0164  0.3776
17324SOL     OW53412   3.206   7.547  12.343 -0.1815 -0.3521 -0.1990
17324SOL    HW153413   3.224   7.454  12.331 -0.6939 -0.2203 -2.4188
17324SOL    HW253414   3.111   7.554  12.345 -0.1826  0.2296 -1.4075
17325SOL     OW53415   5.671   3.534  10.750 -0.2560 -0.0135  0.0278
17325SOL    HW153416   5.761   3.557  10.731 -1.1507  1.6343 -2.8666
17325SOL    HW253417   5.638   3.495  10.669 -2.6699  1.3517  0.2478
17326SOL     OW53418   7.385   7.227  10.371 -0.1168 -0.1417 -0.0524
17326SOL    HW153419   7.316   7.164  10.392  0.0084 -0.2171  0.1356
17326SOL    HW253420   7.369   7.301  10.429 -0.2795  0.0113 -0.2921
17327SOL     OW53421   5.688   1.465   2.492  0.4038 -0.1842 -0.0582
17327SOL    HW153422   5.593   1.479   2.499  0.1159 -2.2617  1.1631
17327SOL    HW253423   5.726   1.551   2.505 -1.3027  0.5079  0.7002
17328SOL     OW53424   7.038   4.757   9.143  0.0952 -0.2637  0.4540
17328SOL    HW153425   7.094   4.724   9.214  1.1749  0.4294 -0.0588
17328SOL    HW253426   7.077   4.840   9.118 -0.7489 -0.1153 -0.4265
17329SOL     OW53427   0.554   4.938   2.833 -0.8475  0.5464  0.3721
17329SOL    HW153428   0.527   4.901   2.917 -0.3688  1.6019  1.0142
17329SOL    HW253429   0.523   4.875   2.768 -2.4070  0.3490  1.2490
17330SOL     OW53430   7.449   4.557   6.098 -0.4743  0.2669  0.2742
17330SOL    HW153431   7.414   4.602   6.021 -2.3591 -0.4729  0.6388
17330SOL    HW253432   7.488   4.477   6.062 -2.4669 -0.7052  0.1347
17331SOL     OW53433   1.350   2.391   3.930  0.0553 -0.2170 -0.6449
17331SOL    HW153434   1.383   2.432   4.010  0.0645 -0.2364 -0.6388
17331SOL    HW253435   1.303   2.461   3.885 -1.8588 -0.7161  0.4550
17332SOL     OW53436   3.068   7.152  11.098  0.3490 -0.4718 -0.3491
17332SOL    HW153437   3.007   7.094  11.053 -0.9272 -0.0552  0.7734
17332SOL    HW253438   3.135   7.094  11.134 -0.4351 -1.1655  0.0256
17333SOL     OW53439   3.122   1.910   7.056 -0.0170  0.1604  0.4261
17333SOL    HW153440   3.181   1.894   7.130  1.0301 -1.8161 -0.7556
17333SOL    HW253441   3.082   1.995   7.075  3.0137  1.5108  1.4366
17334SOL     OW53442   1.611   1.959  10.420 -0.6311 -0.4468  0.0683
17334SOL    HW153443   1.599   1.984  10.512  1.7139  0.4435  0.2112
17334SOL    HW253444   1.583   2.036  10.371  0.4081  0.0288  0.1910
17335SOL     OW53445   0.833   5.105   2.592 -0.0236  0.3262 -0.4024
17335SOL    HW153446   0.812   5.075   2.680 -1.2922  0.7540 -0.5465
17335SOL    HW253447   0.873   5.191   2.605  2.5985 -0.8371 -0.0706
17336SOL     OW53448   0.196   7.315   8.071 -0.1424  0.3028 -0.3857
17336SOL    HW153449   0.198   7.372   8.147 -0.3416  0.5049 -0.5303
17336SOL    HW253450   0.235   7.233   8.101 -1.1591  0.0205  0.2219
17337SOL     OW53451   2.267   7.325   6.484 -0.0522 -0.9695  0.3157
17337SOL    HW153452   2.211   7.318   6.562 -1.1427 -0.6157 -0.4226
17337SOL    HW253453   2.262   7.238   6.444 -1.8004 -0.3658 -0.8847
17338SOL     OW53454   7.197   0.439   6.800  0.1461  0.2741  0.1693
17338SOL    HW153455   7.190   0.380   6.725 -0.2361 -0.8385  1.0648
17338SOL    HW253456   7.161   0.390   6.873  0.4624  1.3658  1.0841
17339SOL     OW53457   3.247   7.397   4.566  0.4192 -0.4306  0.1622
17339SOL    HW153458   3.331   7.422   4.605  1.2904 -1.9458 -0.6628
17339SOL    HW253459   3.252   7.302   4.557 -1.3829 -0.5445  0.0440
17340SOL     OW53460   5.617   0.681  11.845 -0.2258  0.0892 -0.2735
17340SOL    HW153461   5.655   0.676  11.933 -0.3546 -2.1190 -0.2892
17340SOL    HW253462   5.539   0.736  11.856 -0.6614 -0.7563  1.1801
17341SOL     OW53463   3.128   6.145   0.105  0.1964  0.1873 -0.9668
17341SOL    HW153464   3.145   6.131   0.012  0.0329  0.0019 -0.9695
17341SOL    HW253465   3.211   6.126   0.148 -0.2441 -1.7762 -0.8725
17342SOL     OW53466   3.930   4.806  10.800  0.1885  0.9324 -0.1523
17342SOL    HW153467   3.969   4.727  10.762 -0.4406  1.2344 -1.4988
17342SOL    HW253468   4.002   4.869  10.804  0.4756  0.5932  0.0147
17343SOL     OW53469   1.416   1.040   5.073  0.0473  0.6154 -0.5135
17343SOL    HW153470   1.509   1.019   5.078 -0.3753 -1.1119  1.8603
17343SOL    HW253471   1.389   1.009   4.987  1.7939  1.9543 -1.6068
17344SOL     OW53472   0.030   7.542   8.580 -0.2242  0.0379 -0.1543
17344SOL    HW153473  -0.004   7.505   8.498 -0.1788  0.8518 -0.5437
17344SOL    HW253474  -0.021   7.622   8.594 -0.3873 -0.2072  0.7378
17345SOL     OW53475   4.586   4.533   5.760 -0.0154  0.3091 -0.0812
17345SOL    HW153476   4.607   4.441   5.745 -0.2753  0.3708 -0.8403
17345SOL    HW253477   4.642   4.580   5.699 -0.7987  0.5894 -0.5929
17346SOL     OW53478   2.362   3.233   4.872 -0.1112 -0.2224  0.3819
17346SOL    HW153479   2.426   3.290   4.829  0.3416 -0.1232  1.1743
17346SOL    HW253480   2.278   3.258   4.833  0.3517 -0.5450 -0.8640
17347SOL     OW53481   1.636   1.453   8.108  0.1885 -0.4891 -0.1144
17347SOL    HW153482   1.656   1.455   8.015  0.4447 -2.0256 -0.1248
17347SOL    HW253483   1.623   1.360   8.127 -1.0964 -0.0860  1.1209
17348SOL     OW53484   2.021   7.133   2.322  0.4958  0.2364  0.1828
17348SOL    HW153485   1.986   7.052   2.359 -0.5949  0.4356 -0.3774
17348SOL    HW253486   1.977   7.142   2.237  1.7246  0.6334 -0.4412
17349SOL     OW53487   5.445   1.987   2.205  0.4013 -0.5350  0.0368
17349SOL    HW153488   5.397   1.905   2.195  0.7222 -0.7638  0.3304
17349SOL    HW253489   5.378   2.055   2.206  0.1080 -0.8270  0.1518
17350SOL     OW53490   2.696   7.012   1.978  0.7117  0.7166 -0.2506
17350SOL    HW153491   2.631   7.020   1.908 -0.7354  0.4147  1.0094
17350SOL    HW253492   2.771   6.972   1.935 -0.6490 -0.8248 -1.3460
17351SOL     OW53493   6.510   4.385   2.009 -0.5309  0.1669 -0.2258
17351SOL    HW153494   6.546   4.445   2.075  1.9808  0.4305 -1.6807
17351SOL    HW253495   6.444   4.334   2.056  0.5587  0.8877  2.2666
17352SOL     OW53496   0.673   1.036   3.459  0.0264 -0.2973  0.2405
17352SOL    HW153497   0.728   1.069   3.388 -0.5719  1.4095  0.5358
17352SOL    HW253498   0.651   0.947   3.432  1.2962 -0.3222 -0.8277
17353SOL     OW53499   0.119   1.812   3.460  0.3131 -0.1719  0.1156
17353SOL    HW153500   0.144   1.847   3.546 -0.3197 -0.9798  0.6435
17353SOL    HW253501   0.199   1.772   3.426  0.5521  0.0915  0.3572
17354SOL     OW53502   4.749   2.701   6.764 -0.0694  0.1321  0.0914
17354SOL    HW153503   4.841   2.712   6.740 -0.0751  0.2570  0.1232
17354SOL    HW253504   4.726   2.783   6.809 -0.3195  0.2818 -0.3089
17355SOL     OW53505   0.097   6.003   5.337  0.3177  0.0331  0.0213
17355SOL    HW153506   0.121   5.931   5.278  2.8133  0.8109 -0.0404
17355SOL    HW253507   0.017   5.973   5.380  0.6238 -2.2715 -0.8499
17356SOL     OW53508   1.412   0.830  10.184  0.5641 -0.3262  0.3851
17356SOL    HW153509   1.422   0.918  10.148 -1.1094  0.0311  0.7243
17356SOL    HW253510   1.398   0.843  10.278 -0.3125 -0.8856  0.3476
17357SOL     OW53511   3.170   1.401   0.122 -0.2714  0.5328  0.0477
17357SOL    HW153512   3.098   1.423   0.182 -1.1377 -1.3070 -0.2660
17357SOL    HW253513   3.204   1.318   0.155  0.2871  0.2991 -1.0777
17358SOL     OW53514   4.144   2.488   9.571 -0.0529  0.6342  0.0401
17358SOL    HW153515   4.083   2.434   9.521 -0.2405  1.5655 -0.7551
17358SOL    HW253516   4.088   2.535   9.633 -0.1080  1.2150 -0.4441
17359SOL     OW53517   7.292   6.441   7.316 -0.4284 -0.2322  0.2118
17359SOL    HW153518   7.317   6.444   7.224 -2.1231  1.3794 -0.2530
17359SOL    HW253519   7.353   6.500   7.360  0.6886 -1.3665  0.2532
17360SOL     OW53520   3.812   3.241   4.386 -0.0485 -0.6268 -0.3766
17360SOL    HW153521   3.907   3.245   4.389 -0.0654 -0.3008 -0.2530
17360SOL    HW253522   3.792   3.147   4.379  0.3119 -0.6382 -1.4887
17361SOL     OW53523   4.369   3.610   1.577  0.0140 -0.0813 -0.1435
17361SOL    HW153524   4.435   3.639   1.515 -0.4796 -0.7389 -1.0019
17361SOL    HW253525   4.299   3.573   1.523 -0.9663  0.3970  0.7456
17362SOL     OW53526   7.445   6.722   1.749 -0.4708  0.0294 -0.0990
17362SOL    HW153527   7.496   6.800   1.726 -0.3639  0.0627  0.2333
17362SOL    HW253528   7.367   6.756   1.793  0.9901 -0.0982  2.8190
17363SOL     OW53529   3.685   1.023   6.116 -0.3058 -0.0736  0.1714
17363SOL    HW153530   3.716   1.113   6.118 -0.5023 -0.0203  1.4127
17363SOL    HW253531   3.653   1.006   6.204  2.0639 -2.1736  0.7761
17364SOL     OW53532   4.352   7.115   9.060  0.1952  0.2432  0.0656
17364SOL    HW153533   4.257   7.107   9.068  0.0428 -0.4652 -1.8067
17364SOL    HW253534   4.386   7.081   9.142 -1.1803  1.1978  1.0721
17365SOL     OW53535   7.236   7.176   2.276  0.6627  0.1691  0.2712
17365SOL    HW153536   7.199   7.199   2.361 -3.9142  1.5853 -1.8004
17365SOL    HW253537   7.172   7.118   2.237  1.0340  1.8849 -3.2991
17366SOL     OW53538   7.620   6.538   0.467 -0.5833 -0.4948  0.4074
17366SOL    HW153539   7.696   6.480   0.473  0.4557  0.5999 -1.1845
17366SOL    HW253540   7.654   6.625   0.488 -1.4585 -0.0278 -0.0256
17367SOL     OW53541   2.161   4.811   8.510 -0.2331 -0.9249 -0.0556
17367SOL    HW153542   2.183   4.789   8.420 -0.3415  0.8442 -0.5390
17367SOL    HW253543   2.117   4.733   8.544  0.1447 -1.7423 -1.4022
17368SOL     OW53544   7.898   1.353   8.168  0.1535 -0.6116 -0.3558
17368SOL    HW153545   7.966   1.391   8.224 -1.3777 -1.4877  2.3069
17368SOL    HW253546   7.946   1.318   8.092  2.3985  0.4688  0.4645
17369SOL     OW53547   2.140   0.972   9.447 -0.7351  0.3337 -0.1733
17369SOL    HW153548   2.120   0.963   9.540  0.1553 -1.1539 -0.0878
17369SOL    HW253549   2.190   1.053   9.441  0.0155 -0.0371  0.8033
17370SOL     OW53550   6.050   1.785   1.895 -0.3710 -0.4238 -0.2742
17370SOL    HW153551   5.996   1.856   1.929 -1.1930 -1.7161  1.2800
17370SOL    HW253552   6.140   1.816   1.905 -0.7382  0.9913 -1.0960
17371SOL     OW53553   1.290   5.280  10.870 -0.1239  0.3408  0.2530
17371SOL    HW153554   1.309   5.187  10.886  3.1351  0.8389 -0.1663
17371SOL    HW253555   1.305   5.322  10.954 -2.0673  0.5100  0.5687
17372SOL     OW53556   3.776   7.575   3.406 -0.2524 -0.2282 -0.6636
17372SOL    HW153557   3.833   7.650   3.396 -0.1285 -0.3014 -0.5123
17372SOL    HW253558   3.693   7.602   3.365 -0.7467  0.5997  0.8096
17373SOL     OW53559   6.369   3.795   7.122  0.6006  1.2097  0.1097
17373SOL    HW153560   6.293   3.847   7.149  0.4994  0.5031  1.2577
17373SOL    HW253561   6.332   3.714   7.087  0.8127  0.7615  0.8915
17374SOL     OW53562   4.469   1.540  10.607 -0.0485  0.3757 -0.4740
17374SOL    HW153563   4.376   1.524  10.621  0.1618 -0.4214  0.0774
17374SOL    HW253564   4.484   1.519  10.515 -0.0274 -1.5101 -0.0801
17375SOL     OW53565   4.630   5.583   1.145 -0.2869  0.1544  0.1890
17375SOL    HW153566   4.626   5.513   1.079  0.6384  0.7974 -0.5747
17375SOL    HW253567   4.661   5.540   1.224  1.6115 -0.0987 -0.6280
17376SOL     OW53568   5.729   7.588   7.496  0.3250 -0.3233 -0.1728
17376SOL    HW153569   5.716   7.528   7.422 -3.3777 -0.9886  0.8177
17376SOL    HW253570   5.727   7.532   7.573 -4.4781  0.8399  0.8858
17377SOL     OW53571   6.581   1.199   5.273 -0.3452 -0.5753  0.4939
17377SOL    HW153572   6.600   1.261   5.344 -1.0717 -0.9552  1.0261
17377SOL    HW253573   6.629   1.120   5.297  1.6585  0.1532 -0.8432
17378SOL     OW53574   1.916   5.067  11.327  0.4581  0.1060 -0.2313
17378SOL    HW153575   1.907   5.059  11.232  1.5345  0.1976 -0.3457
17378SOL    HW253576   1.830   5.098  11.356  0.3989  0.9493 -1.2712
17379SOL     OW53577   7.173   2.202   8.218 -0.7761  0.3616 -0.5085
17379SOL    HW153578   7.209   2.290   8.231 -0.3934 -0.0929  2.2536
17379SOL    HW253579   7.079   2.215   8.210 -1.2224  0.9590  3.5154
17380SOL     OW53580   5.488   0.311   0.307 -0.3651 -0.3634  0.1766
17380SOL    HW153581   5.471   0.295   0.215  0.4599 -2.6389  0.3649
17380SOL    HW253582   5.581   0.335   0.311  0.1425 -2.2193  0.5544
17381SOL     OW53583   1.601   7.589   8.741  0.4714  0.2716 -0.0252
17381SOL    HW153584   1.675   7.590   8.802  0.2978 -0.2664  0.2033
17381SOL    HW253585   1.526   7.566   8.795  0.2519  0.1652 -0.3735
17382SOL     OW53586   2.252   2.278  11.258  0.1032  0.0344  0.0303
17382SOL    HW153587   2.223   2.303  11.170 -0.9488 -1.5049 -0.0973
17382SOL    HW253588   2.340   2.244  11.246 -0.1768 -0.5188 -0.5113
17383SOL     OW53589   7.752   6.460  12.198 -0.2113  0.4366 -0.2790
17383SOL    HW153590   7.815   6.390  12.215  0.4625  0.9765 -0.5161
17383SOL    HW253591   7.795   6.516  12.133 -1.4637  0.1126 -1.4122
17384SOL     OW53592   1.701   7.441   5.479  0.5910 -0.2941 -0.1371
17384SOL    HW153593   1.690   7.472   5.389  2.0592 -1.2883 -0.7050
17384SOL    HW253594   1.705   7.521   5.531 -1.8045  0.2804 -0.7115
17385SOL     OW53595   3.088   1.206   5.205 -0.5048 -0.6924  0.1302
17385SOL    HW153596   3.028   1.237   5.137 -0.6507  0.8284  0.9063
17385SOL    HW253597   3.059   1.250   5.285  1.7473  0.2797  0.5027
17386SOL     OW53598   3.333   0.260   3.194  0.5478  0.9511 -0.2741
17386SOL    HW153599   3.426   0.282   3.189  0.6118  1.7312  2.4280
17386SOL    HW253600   3.330   0.183   3.252 -0.5264  1.9044  1.0215
17387SOL     OW53601   1.135   3.710   0.713  0.7972 -0.5603  0.0274
17387SOL    HW153602   1.069   3.683   0.649 -0.4207  0.6511  0.7296
17387SOL    HW253603   1.149   3.803   0.696  0.4944 -0.2282  1.4439
17388SOL     OW53604   1.846   2.559   3.374  0.2318 -0.2078  0.2149
17388SOL    HW153605   1.838   2.563   3.469 -0.6189 -0.5108  0.1629
17388SOL    HW253606   1.825   2.648   3.344  0.4312 -0.1307  0.3022
17389SOL     OW53607   4.964   0.138  11.033 -0.2390 -0.0540  0.3903
17389SOL    HW153608   4.965   0.200  10.960 -1.4674 -0.2118  0.2282
17389SOL    HW253609   5.052   0.100  11.032  0.1119  0.7279 -0.3237
17390SOL     OW53610   6.056   4.520   9.808 -0.1428 -0.1876  0.4127
17390SOL    HW153611   6.052   4.568   9.726  1.3704 -0.2697  0.2634
17390SOL    HW253612   5.969   4.480   9.817 -0.7227  0.8229 -0.5114
17391SOL     OW53613   5.525   5.366   6.696  0.8444 -0.1679  0.3337
17391SOL    HW153614   5.568   5.395   6.615 -1.7015  0.5118 -0.8841
17391SOL    HW253615   5.484   5.283   6.673  0.2774 -0.0706  0.9709
17392SOL     OW53616   2.306   1.518  11.128  0.1803  0.3385  0.0052
17392SOL    HW153617   2.226   1.469  11.107  1.1340 -0.6317 -1.7079
17392SOL    HW253618   2.309   1.522  11.223 -1.2544 -0.7349  0.1164
17393SOL     OW53619   1.632   1.109   5.508 -0.0608 -0.1635  0.0251
17393SOL    HW153620   1.604   1.151   5.590  0.5914  0.2362  0.0472
17393SOL    HW253621   1.611   1.173   5.440 -1.1339 -0.7296 -0.1952
17394SOL     OW53622   0.123   4.681  11.133 -0.5496 -0.4849  0.0157
17394SOL    HW153623   0.170   4.759  11.163 -1.7704 -0.1518  1.1612
17394SOL    HW253624   0.095   4.702  11.044 -3.3918  1.6468  1.2858
17395SOL     OW53625   2.288   0.771   7.876  0.4286  0.5656  0.1562
17395SOL    HW153626   2.353   0.819   7.928  0.3537 -0.0390  0.8219
17395SOL    HW253627   2.315   0.786   7.785  1.2087  0.7395  0.4068
17396SOL     OW53628   7.115   5.328   8.192  0.2341  0.0343  0.2951
17396SOL    HW153629   7.107   5.393   8.262  3.2958  0.6938  0.1903
17396SOL    HW253630   7.142   5.379   8.116 -0.5980 -0.9965 -0.7235
17397SOL     OW53631   0.742   6.530   6.207 -0.0864 -0.4906  0.1148
17397SOL    HW153632   0.744   6.591   6.281  0.9967  0.0223 -0.3058
17397SOL    HW253633   0.819   6.553   6.155  0.4977 -2.3798  0.0625
17398SOL     OW53634   3.374   0.826   6.413  0.3588 -0.0924 -0.1202
17398SOL    HW153635   3.291   0.824   6.365 -0.1558  0.4914  0.7263
17398SOL    HW253636   3.408   0.914   6.398 -0.6461  0.7048  1.9407
17399SOL     OW53637   5.091   4.602   9.165  0.0537 -0.1103  0.4640
17399SOL    HW153638   5.070   4.671   9.102  2.3677  2.5895  2.3894
17399SOL    HW253639   5.021   4.605   9.230 -0.6969 -0.7667 -0.2871
17400SOL     OW53640   0.848   6.374   5.116  0.3983 -0.3074 -0.4182
17400SOL    HW153641   0.776   6.314   5.096  0.7653 -0.9980  0.2871
17400SOL    HW253642   0.807   6.441   5.171  0.0857 -0.1538 -0.8306
17401SOL     OW53643   2.049   6.394   9.001 -0.8468  0.1917 -0.0722
17401SOL    HW153644   2.104   6.391   8.923 -0.2732 -1.1119  0.3665
17401SOL    HW253645   2.069   6.479   9.041 -0.6833  0.6029 -1.0042
17402SOL     OW53646   4.382   1.705  12.410  0.2608  0.5126 -0.2297
17402SOL    HW153647   4.288   1.706  12.428 -0.0736  0.3979 -1.7989
17402SOL    HW253648   4.398   1.782  12.356  0.7076 -0.4097 -1.4852
17403SOL     OW53649   0.748   6.217   7.203 -0.6210  0.4673 -0.4181
17403SOL    HW153650   0.701   6.136   7.222 -0.3710  0.4482  0.1604
17403SOL    HW253651   0.840   6.191   7.195 -0.1168  0.9818  2.3490
17404SOL     OW53652   1.668   0.956   0.335  0.0015  0.5913 -0.0035
17404SOL    HW153653   1.643   1.047   0.350 -1.0780  0.2992  0.0403
17404SOL    HW253654   1.586   0.907   0.340  0.3318 -0.1978 -1.5379
17405SOL     OW53655   1.881   5.137  10.656  0.4300 -0.8112 -0.4760
17405SOL    HW153656   1.804   5.086  10.631  2.4243 -3.3735 -1.8769
17405SOL    HW253657   1.905   5.185  10.576  0.7193 -0.5811 -0.2539
17406SOL     OW53658   0.699   3.278   2.694 -0.0232  0.2371 -0.2082
17406SOL    HW153659   0.685   3.191   2.732  1.5405 -0.2816 -0.7367
17406SOL    HW253660   0.692   3.339   2.767  1.3633 -0.5904  0.6503
17407SOL     OW53661   7.187   4.636   9.818  0.6405 -0.0555 -0.5007
17407SOL    HW153662   7.211   4.587   9.739  3.1874  0.5087 -0.1861
17407SOL    HW253663   7.228   4.722   9.805  0.9816  0.0900  1.3604
17408SOL     OW53664   3.808   0.198  10.096  0.2079  0.4148  0.2909
17408SOL    HW153665   3.735   0.223  10.040 -0.2975 -1.4764  0.0239
17408SOL    HW253666   3.865   0.145  10.040  1.3541  1.1265  0.7311
17409SOL     OW53667   5.354   3.431   0.091  0.0154  0.3838 -1.0426
17409SOL    HW153668   5.425   3.385   0.045 -0.3503 -0.5400 -0.7045
17409SOL    HW253669   5.286   3.364   0.103 -0.8428  1.2091 -1.2009
17410SOL     OW53670   0.323   3.723   7.720 -0.1098  0.5617 -0.1579
17410SOL    HW153671   0.413   3.751   7.734 -0.9598  2.8928  1.1737
17410SOL    HW253672   0.326   3.628   7.729  1.8322  0.7619  2.3862
17411SOL     OW53673   6.268   5.990   3.859  0.2393 -0.0882  0.6267
17411SOL    HW153674   6.328   6.003   3.786  0.2466 -0.1550  0.6207
17411SOL    HW253675   6.190   6.039   3.835 -0.3590 -1.3732 -0.1492
17412SOL     OW53676   2.511   7.445   1.648 -0.2851 -0.4420  0.2838
17412SOL    HW153677   2.445   7.514   1.640  1.4195  1.2269 -0.0029
17412SOL    HW253678   2.540   7.450   1.739  1.8828  1.2560 -0.4214
17413SOL     OW53679   3.515   4.101   0.973 -0.0778 -0.3810 -0.2412
17413SOL    HW153680   3.426   4.082   1.002 -0.2671  0.4066 -0.2855
17413SOL    HW253681   3.543   4.173   1.029  0.5958 -0.7246 -0.1203
17414SOL     OW53682   2.851   1.883   5.618  0.2354 -0.0406 -0.2813
17414SOL    HW153683   2.832   1.957   5.560  1.3452  0.5723  0.0877
17414SOL    HW253684   2.796   1.898   5.694  1.2759  1.0808  0.2942
17415SOL     OW53685   2.326   1.625   2.426  0.3895  0.4807  0.0115
17415SOL    HW153686   2.350   1.630   2.333 -0.3418  0.7067 -0.1719
17415SOL    HW253687   2.291   1.712   2.446 -1.1155 -0.1090  0.0226
17416SOL     OW53688   1.341   4.217   6.571  0.0074  0.3986 -0.0517
17416SOL    HW153689   1.344   4.265   6.488 -0.8365 -0.0665 -0.3576
17416SOL    HW253690   1.254   4.177   6.573  0.1872  0.0272  0.8486
17417SOL     OW53691   0.363   2.822  12.411 -0.3198 -0.1229  0.0115
17417SOL    HW153692   0.348   2.913  12.437 -0.4063  0.3578 -1.5872
17417SOL    HW253693   0.457   2.808  12.423 -0.3374  0.1050  0.4416
17418SOL     OW53694   6.840   0.398  12.351 -0.5377  0.3639  0.0956
17418SOL    HW153695   6.915   0.351  12.387 -1.3835 -1.8482 -0.8402
17418SOL    HW253696   6.767   0.336  12.360 -1.4164  0.9297 -2.5080
17419SOL     OW53697   7.398   5.736   3.760 -0.0907 -0.4696  0.4921
17419SOL    HW153698   7.446   5.697   3.833  1.3734 -0.8184 -0.5997
17419SOL    HW253699   7.454   5.808   3.730 -0.8315 -0.1135 -0.0893
17420SOL     OW53700   6.815   1.637   2.286  0.1009  0.0381 -0.6246
17420SOL    HW153701   6.879   1.570   2.263 -0.6516 -1.1842  0.6618
17420SOL    HW253702   6.782   1.668   2.202  1.5122 -0.1513 -1.2789
17421SOL     OW53703   3.382   5.228  12.140  0.5182 -0.0711 -0.0649
17421SOL    HW153704   3.436   5.149  12.136  0.8020  0.1007  0.3573
17421SOL    HW253705   3.325   5.221  12.063  0.2088 -0.9179  0.2269
17422SOL     OW53706   1.102   7.819   9.543 -0.5050  0.5361  0.4096
17422SOL    HW153707   1.117   7.747   9.481 -1.3001  1.4085 -0.8401
17422SOL    HW253708   1.136   7.897   9.498  0.9214  0.8853  2.0034
17423SOL     OW53709   6.201   5.747   1.673  0.2244 -0.5411  0.0112
17423SOL    HW153710   6.187   5.818   1.735  0.1404 -1.2618  0.8482
17423SOL    HW253711   6.216   5.670   1.729  0.2569 -1.1834 -0.8689
17424SOL     OW53712   0.281   5.429  10.861  0.3415 -0.4145  0.0972
17424SOL    HW153713   0.283   5.394  10.772  1.1697 -1.2058  0.4100
17424SOL    HW253714   0.372   5.424  10.890  0.7354  2.8957 -0.1518
17425SOL     OW53715   2.642   4.216   0.278 -0.2239  0.3004 -0.5012
17425SOL    HW153716   2.549   4.208   0.299  0.1337 -0.1236  1.0449
17425SOL    HW253717   2.687   4.207   0.362  1.2200  0.5904 -1.2020
17426SOL     OW53718   6.392   6.998   0.304 -0.1842  0.2702 -0.4983
17426SOL    HW153719   6.400   6.994   0.399  1.2634 -1.6090 -0.6489
17426SOL    HW253720   6.335   7.074   0.288 -0.6711  0.4763  1.8501
17427SOL     OW53721   3.544   2.645   7.437 -0.1251  0.3799  0.0370
17427SOL    HW153722   3.469   2.611   7.387 -0.6455  0.3095  0.8466
17427SOL    HW253723   3.611   2.577   7.429  0.2097  0.8557 -1.4705
17428SOL     OW53724   6.735   6.020   2.593  0.7385 -0.1072 -0.7911
17428SOL    HW153725   6.672   5.949   2.580 -0.9878  0.8718  1.5255
17428SOL    HW253726   6.813   5.977   2.628  0.0588 -0.9732 -0.3022
17429SOL     OW53727   5.765   2.247   4.386 -0.4643  0.5663 -0.3792
17429SOL    HW153728   5.810   2.249   4.301 -0.6901  0.5239 -0.5006
17429SOL    HW253729   5.819   2.188   4.440 -0.6841  0.0602 -0.7037
17430SOL     OW53730   6.939   5.697   0.972  0.2863  0.0956  0.4309
17430SOL    HW153731   7.013   5.758   0.973  0.8533 -0.5775  0.6115
17430SOL    HW253732   6.870   5.741   1.021 -0.0769  1.5035 -1.2710
17431SOL     OW53733   2.324   7.883   9.735  0.7572 -0.0778  0.6853
17431SOL    HW153734   2.352   7.809   9.788  0.7072 -0.4229  0.2323
17431SOL    HW253735   2.358   7.865   9.647  2.6168  1.4759  1.0098
17432SOL     OW53736   5.309   3.757   1.510  0.1321  0.0412 -0.1616
17432SOL    HW153737   5.228   3.736   1.556 -0.7874  0.4517 -1.5145
17432SOL    HW253738   5.294   3.845   1.474  0.9040 -0.1431 -0.9942
17433SOL     OW53739   3.059   5.244   3.672  0.0015  0.5351  0.0060
17433SOL    HW153740   3.042   5.258   3.765  0.7787  0.4728  0.1690
17433SOL    HW253741   3.135   5.299   3.653  0.2822  0.0189 -0.4190
17434SOL     OW53742   5.504   3.188   4.502  0.8353  0.1991 -0.4121
17434SOL    HW153743   5.584   3.236   4.481  0.9299 -1.0626 -3.4678
17434SOL    HW253744   5.535   3.101   4.529  0.5547  0.7862  1.9930
17435SOL     OW53745   5.382   4.783   7.455 -0.2623  0.1472 -0.2732
17435SOL    HW153746   5.355   4.803   7.544  0.7767  0.1242  0.0633
17435SOL    HW253747   5.302   4.755   7.411 -0.6179 -0.7648  0.9106
17436SOL     OW53748   4.382   0.077   6.598 -0.4990 -0.3565 -0.1920
17436SOL    HW153749   4.355   0.169   6.604  0.2164  0.1545 -3.2442
17436SOL    HW253750   4.477   0.080   6.597 -0.4289 -1.3191  1.2244
17437SOL     OW53751   3.713   4.129   3.310  0.2578 -0.4094 -0.5738
17437SOL    HW153752   3.755   4.132   3.396 -0.8375 -0.1041 -0.0325
17437SOL    HW253753   3.703   4.036   3.291 -1.2635 -0.5122  0.5434
17438SOL     OW53754   3.185   1.536   4.827 -0.0194  0.1692  0.7730
17438SOL    HW153755   3.255   1.571   4.772 -1.0787  2.1326  0.5739
17438SOL    HW253756   3.176   1.445   4.799 -0.3319  0.9996 -2.1936
17439SOL     OW53757   2.639   2.439  10.256 -0.3359  0.0581 -0.4449
17439SOL    HW153758   2.675   2.361  10.213  2.0170  0.2805  0.9534
17439SOL    HW253759   2.674   2.436  10.345 -1.8582  1.6710  0.2581
17440SOL     OW53760   7.853   1.773   0.343 -0.0046 -0.1530  0.4105
17440SOL    HW153761   7.883   1.749   0.255 -1.0440  0.1423 -0.0373
17440SOL    HW253762   7.933   1.797   0.389  0.6070 -0.7139 -0.3233
17441SOL     OW53763   7.542   7.647   4.912 -0.1123 -0.2733  0.2866
17441SOL    HW153764   7.630   7.657   4.876 -1.1629  0.1285 -2.4253
17441SOL    HW253765   7.524   7.553   4.904 -0.4559 -0.1429 -0.6215
17442SOL     OW53766   3.609   0.285   3.241 -0.3417  0.1068 -0.5013
17442SOL    HW153767   3.575   0.232   3.313 -1.0604  0.0164 -0.8997
17442SOL    HW253768   3.703   0.270   3.243 -0.6325 -2.1787 -1.3729
17443SOL     OW53769   1.434   0.359   8.019 -0.1073  0.1470 -0.2395
17443SOL    HW153770   1.340   0.378   8.014 -0.2920 -0.9665 -2.7235
17443SOL    HW253771   1.443   0.274   7.977  1.9596 -0.0431  0.4971
17444SOL     OW53772   3.093   1.440  11.264 -0.2793 -0.0803  0.4326
17444SOL    HW153773   3.003   1.435  11.297 -0.2743 -1.2111  0.3230
17444SOL    HW253774   3.082   1.442  11.169 -0.2140  0.6628  0.4396
17445SOL     OW53775   4.928   0.573   8.439  0.0283  0.2286 -0.3249
17445SOL    HW153776   4.892   0.502   8.491 -0.2610  0.8413  0.3315
17445SOL    HW253777   4.853   0.607   8.389  0.6052 -1.4255 -2.4773
17446SOL     OW53778   2.503   2.631  10.136  0.0504 -0.3793 -1.0135
17446SOL    HW153779   2.468   2.597  10.053  0.6743 -3.2634 -0.1941
17446SOL    HW253780   2.542   2.555  10.179 -3.2226  0.1498  3.5757
17447SOL     OW53781   5.580   5.556   7.118  0.2252  0.0692 -0.6451
17447SOL    HW153782   5.505   5.501   7.095 -0.3251  0.6953 -0.3798
17447SOL    HW253783   5.649   5.529   7.058 -0.6413  0.4351 -1.8367
17448SOL     OW53784   3.178   2.402   7.374 -0.0078 -0.3471 -0.3952
17448SOL    HW153785   3.202   2.377   7.463  1.1236 -0.8161 -0.8043
17448SOL    HW253786   3.198   2.496   7.370  1.0854 -0.5712 -0.4923
17449SOL     OW53787   1.360   6.529   7.138 -0.0743  0.3321 -0.1220
17449SOL    HW153788   1.455   6.542   7.135 -0.1611  0.9850 -0.3615
17449SOL    HW253789   1.343   6.491   7.224  0.5626 -1.2158 -0.6569
17450SOL     OW53790   1.161   5.942   4.382  0.0721  0.1248 -0.5672
17450SOL    HW153791   1.214   5.865   4.359 -0.3317 -0.2736 -0.1765
17450SOL    HW253792   1.074   5.907   4.400 -0.5395  0.8639 -1.9398
17451SOL     OW53793   3.715   6.622   4.364  0.4094  0.0265  0.5681
17451SOL    HW153794   3.765   6.695   4.400  1.9192 -1.1929  1.0682
17451SOL    HW253795   3.752   6.609   4.277 -1.5703  1.3985 -0.5744
17452SOL     OW53796   6.523   1.275   4.805  0.2848  0.5553 -0.1398
17452SOL    HW153797   6.520   1.182   4.781  2.0267  0.4719 -0.1709
17452SOL    HW253798   6.575   1.316   4.736  1.2289  1.1776  0.8982
17453SOL     OW53799   7.712   6.289  10.401 -0.0558  0.0417  0.0820
17453SOL    HW153800   7.666   6.325  10.477  1.1578 -0.0096  0.8730
17453SOL    HW253801   7.804   6.293  10.426  0.3987  0.4101 -1.5720
17454SOL     OW53802   3.433   1.119  11.910  0.3942 -0.1851 -0.4854
17454SOL    HW153803   3.368   1.148  11.974 -0.4858 -0.0218 -1.4267
17454SOL    HW253804   3.391   1.046  11.864  0.7545  0.1065 -1.3008
17455SOL     OW53805   2.391   4.098   9.751  0.1559  0.2898  0.2627
17455SOL    HW153806   2.449   4.170   9.777  1.2669 -1.1267  1.9020
17455SOL    HW253807   2.303   4.136   9.755  0.8501  2.2340 -1.3744
17456SOL     OW53808   2.313   4.304   1.135 -0.0422  0.1827  0.4791
17456SOL    HW153809   2.272   4.388   1.155  1.1729  0.2707  3.0145
17456SOL    HW253810   2.254   4.239   1.173 -0.8037 -0.1380 -1.1738
17457SOL     OW53811   7.825   1.032  10.750 -0.4634  0.0979 -0.4942
17457SOL    HW153812   7.862   0.947  10.727  0.5302  0.1521  0.8106
17457SOL    HW253813   7.731   1.017  10.755 -0.6399 -0.1988 -3.2385
17458SOL     OW53814   3.345   5.608   9.926  0.1753  0.1026  0.1460
17458SOL    HW153815   3.437   5.631   9.911  0.1819 -0.6562 -1.1809
17458SOL    HW253816   3.300   5.692   9.933  1.0232  0.4820  1.2380
17459SOL     OW53817   6.357   3.638   5.496 -0.0975 -0.0924 -0.6475
17459SOL    HW153818   6.327   3.610   5.582 -0.8247 -4.5948 -2.0698
17459SOL    HW253819   6.453   3.645   5.504 -0.3395  2.3472  1.0478
17460SOL     OW53820   4.294   5.049   5.731  0.3221  0.3750 -0.1045
17460SOL    HW153821   4.207   5.013   5.748  1.6224 -1.6362  3.3716
17460SOL    HW253822   4.337   4.982   5.676  0.6106 -0.1907  0.7857
17461SOL     OW53823   0.490   3.901  10.264 -0.1414  0.0639  0.1931
17461SOL    HW153824   0.490   3.996  10.275 -0.0383  0.2237 -1.0398
17461SOL    HW253825   0.508   3.867  10.352  0.6364  1.2042  0.5047
17462SOL     OW53826   2.497   3.040   0.383  0.4717 -0.6560 -0.4062
17462SOL    HW153827   2.439   2.988   0.439  0.6536  0.5123  0.9225
17462SOL    HW253828   2.476   3.131   0.405  1.6473 -0.1956 -1.1122
17463SOL     OW53829   1.406   6.728   2.786  0.6896  0.0577 -0.3932
17463SOL    HW153830   1.471   6.667   2.820  2.0850  3.1501  3.1418
17463SOL    HW253831   1.333   6.722   2.847  1.3142  2.4929  0.7395
17464SOL     OW53832   7.703   4.562   7.254  0.2793  0.0167  0.4043
17464SOL    HW153833   7.643   4.521   7.318  0.1618 -0.3625  0.0548
17464SOL    HW253834   7.746   4.632   7.303  0.6845 -0.6979  1.0991
17465SOL     OW53835   4.136   6.072   5.355  0.2955 -0.8492 -0.1300
17465SOL    HW153836   4.069   6.013   5.321 -0.8807 -0.6943  1.7669
17465SOL    HW253837   4.219   6.032   5.330 -0.4809 -1.3273 -2.0786
17466SOL     OW53838   6.226   5.260   4.904 -0.3266  0.0495  0.3381
17466SOL    HW153839   6.301   5.302   4.862  0.4765 -0.8537  0.8199
17466SOL    HW253840   6.226   5.294   4.993  0.2592 -0.8382  0.6965
17467SOL     OW53841   2.196   3.185  12.101  0.2249 -0.4095  0.0752
17467SOL    HW153842   2.234   3.117  12.156  0.3081  1.2580  2.1903
17467SOL    HW253843   2.164   3.251  12.162 -2.2441  0.2750 -1.7779
17468SOL     OW53844   5.372   1.039   1.794 -0.3296 -0.2786  0.6136
17468SOL    HW153845   5.457   1.073   1.822 -0.9231  0.8010  1.1785
17468SOL    HW253846   5.318   1.041   1.873 -1.6509  1.5999 -0.2444
17469SOL     OW53847   6.802   6.366   1.459  0.6512  0.2652  0.6039
17469SOL    HW153848   6.806   6.421   1.537 -0.7419  0.7627  0.3551
17469SOL    HW253849   6.854   6.412   1.394 -2.5580  2.7508 -0.4162
17470SOL     OW53850   0.169   3.957   0.815  0.5878 -0.0115 -0.0484
17470SOL    HW153851   0.183   3.963   0.909 -1.6179 -0.1264  0.3493
17470SOL    HW253852   0.185   4.046   0.783  0.8201  0.1536  0.5211
17471SOL     OW53853   7.086   6.159   6.333 -0.0479 -0.3482 -0.2078
17471SOL    HW153854   7.056   6.085   6.281  0.1866 -0.2566 -0.4743
17471SOL    HW253855   7.061   6.137   6.423  0.3358 -0.9066 -0.2371
17472SOL     OW53856   4.444   6.382   2.551 -0.1836 -0.9174  0.0598
17472SOL    HW153857   4.357   6.405   2.583  0.2349 -0.8890  1.2400
17472SOL    HW253858   4.455   6.434   2.472 -0.9237 -0.3112  0.3380
17473SOL     OW53859   1.666   0.012   9.264 -0.6718  0.2438  0.3315
17473SOL    HW153860   1.687   0.014   9.357 -2.5752  3.0394  0.8157
17473SOL    HW253861   1.751   0.014   9.220  0.2311  0.5256  1.9915
17474SOL     OW53862   5.716   0.316   6.919 -0.3855 -0.3845 -0.1004
17474SOL    HW153863   5.631   0.282   6.945 -0.3879  0.3538  0.8827
17474SOL    HW253864   5.709   0.411   6.928  0.4285 -0.2908 -0.3499
17475SOL     OW53865   6.840   0.358   5.334  0.0917 -0.3763  0.1747
17475SOL    HW153866   6.752   0.320   5.331  1.2649 -3.5535  1.8905
17475SOL    HW253867   6.869   0.358   5.243 -0.9978 -1.0435 -0.1892
17476SOL     OW53868   2.380   5.169   0.987  0.1214  0.0874  0.0501
17476SOL    HW153869   2.367   5.263   0.998  0.9085  0.2789 -0.4893
17476SOL    HW253870   2.471   5.161   0.957  0.5103 -0.9490  1.3924
17477SOL     OW53871   5.023   0.250   5.089  0.2945 -0.4860  0.5394
17477SOL    HW153872   4.957   0.309   5.126 -1.2496 -2.2962  0.7800
17477SOL    HW253873   5.106   0.295   5.104 -0.9352  3.0206 -1.8240
17478SOL     OW53874   6.537   7.286   3.976 -0.7354 -0.3422 -0.3745
17478SOL    HW153875   6.494   7.372   3.983 -0.0133  0.0344 -0.5261
17478SOL    HW253876   6.611   7.300   3.918 -0.7488 -1.1336 -0.6000
17479SOL     OW53877   3.729   7.336   3.837  0.1937  0.5168 -0.0784
17479SOL    HW153878   3.646   7.311   3.797  1.5290 -2.5759 -1.2635
17479SOL    HW253879   3.751   7.420   3.797 -0.6333 -0.3711 -2.6223
17480SOL     OW53880   1.419   3.665   8.110  0.5018  0.3019 -0.3828
17480SOL    HW153881   1.420   3.578   8.150  1.6039 -0.4119 -1.8659
17480SOL    HW253882   1.327   3.691   8.112  0.2858 -0.4626  0.9578
17481SOL     OW53883   5.074   1.700   4.830 -0.6770  0.1168  0.1297
17481SOL    HW153884   5.159   1.659   4.816 -0.9742 -0.3893 -0.1773
17481SOL    HW253885   5.013   1.649   4.778 -1.1013  0.7601 -0.0225
17482SOL     OW53886   5.209   7.558   7.231 -0.2097  0.4879  0.3048
17482SOL    HW153887   5.223   7.539   7.138 -0.9940 -0.8036  0.4243
17482SOL    HW253888   5.280   7.616   7.255 -0.9419  2.2425 -1.5177
17483SOL     OW53889   4.063   3.957  10.908 -0.1801  0.0899 -0.4768
17483SOL    HW153890   4.140   4.013  10.900 -0.1746  0.4665  1.5338
17483SOL    HW253891   4.024   3.957  10.821  1.4213  0.8576 -1.2448
17484SOL     OW53892   7.013   2.277   6.782  0.5498 -0.1449 -0.1060
17484SOL    HW153893   7.047   2.358   6.821  2.1589 -0.2468 -1.2272
17484SOL    HW253894   7.005   2.297   6.689  1.4341 -1.4258 -0.4718
17485SOL     OW53895   0.483   2.479   1.549 -1.0927  0.0462  0.4775
17485SOL    HW153896   0.556   2.527   1.587 -1.3331  0.2492  0.6859
17485SOL    HW253897   0.459   2.415   1.617 -0.6243 -0.5333  0.1138
17486SOL     OW53898   4.831   0.428   4.630 -0.9339 -0.4897 -0.3117
17486SOL    HW153899   4.794   0.371   4.697 -2.1649 -0.6988 -1.1318
17486SOL    HW253900   4.915   0.455   4.665 -0.8330 -1.8888  0.6096
17487SOL     OW53901   6.853   6.973   4.185 -0.4447 -0.2716 -0.1168
17487SOL    HW153902   6.853   6.911   4.258  0.8092 -0.7034 -0.4758
17487SOL    HW253903   6.918   6.939   4.124 -1.1941  0.3016 -1.2680
17488SOL     OW53904   0.953   1.081   5.658 -0.1893  0.2391  0.2904
17488SOL    HW153905   1.023   1.086   5.592 -1.4482  1.3053 -1.0263
17488SOL    HW253906   0.890   1.020   5.620  0.8484 -2.4116  2.3962
17489SOL     OW53907   7.431   1.954  11.550  0.4737 -0.2308 -0.3372
17489SOL    HW153908   7.409   1.869  11.589 -1.2594 -0.0331 -0.7942
17489SOL    HW253909   7.361   1.970  11.488  1.4517  0.9797 -1.1678
17490SOL     OW53910   1.134   2.928   6.436  0.4735  0.3627 -0.5640
17490SOL    HW153911   1.187   2.979   6.498 -0.7005  0.6970  0.1953
17490SOL    HW253912   1.097   2.857   6.489 -1.4993  1.3337 -0.5748
17491SOL     OW53913   5.128   4.837   7.340  0.6380 -0.2406 -0.0137
17491SOL    HW153914   5.044   4.880   7.357  0.6777 -0.2156  0.1210
17491SOL    HW253915   5.189   4.909   7.323  1.0375 -0.1502  1.6568
17492SOL     OW53916   5.647   0.790   4.403 -0.0190 -0.2638  0.1104
17492SOL    HW153917   5.661   0.885   4.404 -0.2250 -0.2364  0.7211
17492SOL    HW253918   5.673   0.763   4.315 -0.7198  0.4779 -0.3377
17493SOL     OW53919   0.786   6.524   6.508  0.4682 -0.4127  0.0477
17493SOL    HW153920   0.784   6.515   6.604  2.1849 -1.5111  0.0227
17493SOL    HW253921   0.786   6.618   6.493 -0.8043 -0.2160  1.0748
17494SOL     OW53922   4.784   5.312   6.556 -0.0975  0.4053  0.5672
17494SOL    HW153923   4.732   5.232   6.550  1.1417 -0.3635 -0.4616
17494SOL    HW253924   4.774   5.354   6.471  1.3265 -0.0171  0.1616
17495SOL     OW53925   4.128   5.948   3.515 -0.6346  0.3350 -0.8383
17495SOL    HW153926   4.204   5.951   3.573 -1.9523  0.5488  0.9773
17495SOL    HW253927   4.147   5.879   3.452  1.5605  1.2104 -1.2092
17496SOL     OW53928   6.199   0.253   4.162  0.1712 -0.2824 -0.7747
17496SOL    HW153929   6.112   0.243   4.201  0.5375 -0.3433  0.0313
17496SOL    HW253930   6.227   0.342   4.187  0.0573  0.0034 -1.6211
17497SOL     OW53931   4.230   0.860  11.909 -0.1557  0.3799 -0.2420
17497SOL    HW153932   4.191   0.849  11.996 -1.0122  1.0261 -0.5319
17497SOL    HW253933   4.306   0.915  11.924 -0.2386  0.4008  0.1162
17498SOL     OW53934   1.432   2.335   3.159 -0.0396 -0.3870  0.1328
17498SOL    HW153935   1.380   2.341   3.079 -0.8253  0.4835  0.6895
17498SOL    HW253936   1.372   2.362   3.229  1.0414  0.2814  0.8381
17499SOL     OW53937   7.288   2.957   6.901 -0.3903  0.0139  0.1424
17499SOL    HW153938   7.237   3.033   6.872 -0.6223  0.1282  0.8331
17499SOL    HW253939   7.269   2.950   6.994  1.3171  0.4247  0.5527
17500SOL     OW53940   4.479   5.379   2.667  0.2935 -0.2146 -0.5597
17500SOL    HW153941   4.543   5.337   2.610  1.4401  0.2374  0.3567
17500SOL    HW253942   4.530   5.408   2.743 -1.2067 -0.9695  0.8060
17501SOL     OW53943   1.353   2.695   6.674 -0.5744 -0.0857 -0.5328
17501SOL    HW153944   1.297   2.686   6.598 -0.4267 -1.6433 -0.4990
17501SOL    HW253945   1.293   2.702   6.748 -0.7675 -1.7178 -0.4982
17502SOL     OW53946   6.938   6.054   8.034 -0.1523 -0.2867  0.4362
17502SOL    HW153947   6.856   6.011   8.011  0.4387 -1.9073  1.1952
17502SOL    HW253948   7.006   6.002   7.990  0.4933  1.0890 -0.2710
17503SOL     OW53949   6.505   3.196   0.570  0.3698 -0.4865  0.0580
17503SOL    HW153950   6.477   3.204   0.479  1.0702  0.0443 -0.1209
17503SOL    HW253951   6.430   3.227   0.621  0.1325 -0.3793 -0.3537
17504SOL     OW53952   1.447   5.563   1.453 -0.4771  0.3068 -0.0111
17504SOL    HW153953   1.506   5.489   1.471 -0.3145  0.6816  1.0692
17504SOL    HW253954   1.475   5.595   1.367  0.2562 -0.1350  0.0534
17505SOL     OW53955   2.341   5.355   8.642 -0.7289  0.5633  0.3674
17505SOL    HW153956   2.253   5.354   8.605 -0.0506  0.3485 -1.3675
17505SOL    HW253957   2.389   5.288   8.592  0.2847  0.3023  1.6314
17506SOL     OW53958   4.470   6.750  10.286  0.7584  0.2065 -0.3197
17506SOL    HW153959   4.543   6.739  10.225 -0.7708  0.0698 -2.2003
17506SOL    HW253960   4.394   6.765  10.231 -0.5610  1.0406  1.6009
17507SOL     OW53961   1.411   1.080   2.831 -0.1395 -0.1845  0.0632
17507SOL    HW153962   1.383   1.030   2.907 -2.0713  0.4265 -0.1793
17507SOL    HW253963   1.494   1.120   2.858 -1.4438  1.1759  2.4304
17508SOL     OW53964   0.128   1.317   5.208  0.2093 -0.0016 -0.0455
17508SOL    HW153965   0.187   1.348   5.277  0.2852 -0.3888  0.0686
17508SOL    HW253966   0.175   1.334   5.126 -1.1182  3.2682 -0.2553
17509SOL     OW53967   3.905   0.074   7.576 -0.2779  0.3487  0.0962
17509SOL    HW153968   3.973   0.140   7.591  0.2738 -0.5041  1.6009
17509SOL    HW253969   3.876   0.050   7.664 -1.1606 -0.7110 -0.4635
17510SOL     OW53970   0.375   6.058  11.060  0.3226  0.1358 -0.4231
17510SOL    HW153971   0.285   6.056  11.093 -0.4127 -0.9359 -2.3459
17510SOL    HW253972   0.417   5.983  11.101  1.7752  2.9264  3.8863
17511SOL     OW53973   0.653   7.573   9.054  0.2159  0.0206  0.5894
17511SOL    HW153974   0.734   7.624   9.053 -0.2738  0.7926  0.2738
17511SOL    HW253975   0.680   7.486   9.023  0.6143  0.7409 -1.2039
17512SOL     OW53976   5.630   0.598   0.295  0.1452  0.1471  0.1605
17512SOL    HW153977   5.707   0.546   0.273  0.1788 -0.4475  1.6048
17512SOL    HW253978   5.565   0.573   0.229  0.9504  0.1469 -0.6610
17513SOL     OW53979   5.560   7.359   0.297  0.3382 -0.0369 -0.3737
17513SOL    HW153980   5.475   7.402   0.310 -1.0174 -2.4991 -0.5016
17513SOL    HW253981   5.595   7.399   0.217 -1.3652  0.0484 -1.1213
17514SOL     OW53982   6.047   7.641  11.145 -0.4151  0.1411 -0.2531
17514SOL    HW153983   6.088   7.666  11.062  0.7963  1.2902  0.6543
17514SOL    HW253984   5.960   7.682  11.142 -0.3510  0.2382 -0.9211
17515SOL     OW53985   0.828   1.751   9.071 -0.4398 -0.4915  0.2029
17515SOL    HW153986   0.797   1.817   9.009 -0.0738 -0.6782 -0.1862
17515SOL    HW253987   0.897   1.796   9.121  0.7273 -0.9355 -0.9364
17516SOL     OW53988   4.727   5.075   7.551  0.5912  0.2364  0.8730
17516SOL    HW153989   4.752   4.999   7.602  1.8997 -1.3274 -1.8500
17516SOL    HW253990   4.648   5.047   7.504  0.9210  0.5997  0.0679
17517SOL     OW53991   3.217   6.822   6.126 -0.1828 -0.4395  0.2019
17517SOL    HW153992   3.158   6.754   6.094 -0.3610  0.3307 -1.1811
17517SOL    HW253993   3.291   6.820   6.066 -0.4566  0.9649 -0.2242
17518SOL     OW53994   6.642   2.702   0.899 -0.0578 -0.4229 -0.2037
17518SOL    HW153995   6.693   2.697   0.818 -0.6380  2.0327 -0.8164
17518SOL    HW253996   6.553   2.726   0.870 -0.4220 -0.1172  1.0958
17519SOL     OW53997   1.653   5.194   5.619 -0.1707  0.5943 -0.2896
17519SOL    HW153998   1.685   5.104   5.625  2.7431  1.5798  0.5084
17519SOL    HW253999   1.597   5.204   5.697 -0.7941 -0.5768 -0.5601
17520SOL     OW54000   7.724   4.044   3.708 -0.1393 -0.4102  0.0028
17520SOL    HW154001   7.726   4.120   3.767  1.4053  0.9220 -1.6710
17520SOL    HW254002   7.788   3.984   3.746  0.3858  0.1610  0.0353
17521SOL     OW54003   4.124   5.832  11.115  0.1038 -0.1743  0.0053
17521SOL    HW154004   4.127   5.748  11.070 -0.2662 -0.4469  0.4829
17521SOL    HW254005   4.113   5.810  11.207  0.0876  0.3958  0.1430
17522SOL     OW54006   4.262   4.671   1.535 -0.1890 -0.0769  0.1030
17522SOL    HW154007   4.349   4.631   1.534  0.5590  1.4746  0.4521
17522SOL    HW254008   4.223   4.640   1.616  0.0373 -0.7483 -0.0328
17523SOL     OW54009   5.126   7.339   1.898  0.6342  0.6820 -0.3494
17523SOL    HW154010   5.193   7.398   1.930  0.4539 -0.3354  2.1089
17523SOL    HW254011   5.161   7.252   1.914 -1.0325  0.1370  0.5858
17524SOL     OW54012   7.096   2.737   2.126 -0.3911  0.2182  0.4641
17524SOL    HW154013   7.055   2.777   2.203 -1.5973  1.1938 -0.6462
17524SOL    HW254014   7.026   2.730   2.062  0.0158 -2.7270  0.1823
17525SOL     OW54015   2.239   7.953   8.479  0.5136 -0.0696  0.2618
17525SOL    HW154016   2.269   7.962   8.569 -0.2387  1.4564  0.4028
17525SOL    HW254017   2.295   8.014   8.429  0.6266 -0.5677 -0.2309
17526SOL     OW54018   7.417   3.611   3.470 -0.1536  0.1711 -0.0850
17526SOL    HW154019   7.412   3.650   3.557 -0.1180  0.1490 -0.0729
17526SOL    HW254020   7.351   3.542   3.471 -0.0489  0.0710 -0.0242
17527SOL     OW54021   1.805   5.153   2.267 -0.3551  0.3027  0.3146
17527SOL    HW154022   1.814   5.220   2.200 -0.3089  1.2444  1.2470
17527SOL    HW254023   1.757   5.195   2.338 -1.5439 -1.0594  0.3700
17528SOL     OW54024   0.408   1.431   3.075 -0.0482  0.1455  0.5753
17528SOL    HW154025   0.419   1.446   3.169 -1.0148 -0.8095  0.8600
17528SOL    HW254026   0.462   1.498   3.033  2.1299 -0.7812  1.7994
17529SOL     OW54027   4.252   2.476   1.170  0.4994 -0.3178 -0.7599
17529SOL    HW154028   4.213   2.481   1.257  3.0495 -0.6598  0.5122
17529SOL    HW254029   4.230   2.389   1.138  3.1803 -2.0522  1.5786
17530SOL     OW54030   0.567   1.824  10.206  0.4032 -0.7967 -0.2697
17530SOL    HW154031   0.575   1.886  10.279 -2.0821 -0.6610 -0.0326
17530SOL    HW254032   0.624   1.859  10.138  0.4954  0.6899  0.5438
17531SOL     OW54033   3.950   4.325   6.746  0.9254  0.3659  0.1198
17531SOL    HW154034   3.938   4.362   6.833 -0.7622 -1.5794  0.7916
17531SOL    HW254035   3.872   4.352   6.697  0.4154 -0.9530  0.1589
17532SOL     OW54036   1.774   1.837   9.956  0.3539  0.4054 -0.1372
17532SOL    HW154037   1.782   1.745   9.929  0.1048  0.4630 -0.4127
17532SOL    HW254038   1.832   1.845  10.032  1.2403  0.2950 -0.7868
17533SOL     OW54039   6.121   7.673   3.917 -0.1532 -0.4015  0.0011
17533SOL    HW154040   6.067   7.639   3.846  1.2114  0.5393 -1.5462
17533SOL    HW254041   6.145   7.595   3.968 -1.7325 -1.0041 -0.1294
17534SOL     OW54042   4.443   1.748   2.099 -0.0262  0.2596 -0.3454
17534SOL    HW154043   4.404   1.686   2.037  0.7574 -0.2906 -0.3057
17534SOL    HW254044   4.424   1.710   2.185  2.1597 -1.0236 -0.3648
17535SOL     OW54045   5.340   0.278   4.309  0.4119 -0.0624  0.8720
17535SOL    HW154046   5.348   0.371   4.333 -1.2270  0.8902 -1.7975
17535SOL    HW254047   5.430   0.249   4.294  0.9015  1.3417  0.9451
17536SOL     OW54048   3.229   1.769  11.015  0.1148  0.5614  0.4277
17536SOL    HW154049   3.209   1.682  10.979 -0.1580  0.7369  0.1599
17536SOL    HW254050   3.311   1.755  11.063  1.0241  0.5293 -1.0654
17537SOL     OW54051   0.343   0.333   5.018 -0.0003 -0.3332  0.2612
17537SOL    HW154052   0.281   0.269   4.982  0.0099  0.7721 -1.8830
17537SOL    HW254053   0.291   0.412   5.031  0.7148  0.3127 -0.6335
17538SOL     OW54054   7.182   5.926   8.880  0.0354  0.0291  0.1742
17538SOL    HW154055   7.258   5.889   8.925 -0.4529 -0.1708  0.8631
17538SOL    HW254056   7.122   5.852   8.870 -0.4419  0.3712  0.4567
17539SOL     OW54057   0.343   3.588  11.002  0.3302  0.0871 -0.3222
17539SOL    HW154058   0.299   3.516  10.957  0.5212  1.2746 -2.5562
17539SOL    HW254059   0.380   3.548  11.081  0.1806 -2.1972 -1.3312
17540SOL     OW54060   3.343   0.228   4.945  0.4335  0.3899 -0.6816
17540SOL    HW154061   3.345   0.315   4.906  3.4427  0.6867 -0.1085
17540SOL    HW254062   3.422   0.224   4.999 -0.1809 -2.3272  0.1807
17541SOL     OW54063   0.315   5.219  12.195  0.1801  0.2572 -0.0741
17541SOL    HW154064   0.278   5.135  12.222  1.0861  0.0987  0.6844
17541SOL    HW254065   0.249   5.283  12.221 -0.8142 -0.2503 -1.2387
17542SOL     OW54066   4.057   5.962   6.260  0.0239 -0.1917 -0.5990
17542SOL    HW154067   4.040   5.868   6.257  0.0088 -0.2979  1.4127
17542SOL    HW254068   4.117   5.978   6.187  0.5827 -1.8906 -0.5524
17543SOL     OW54069   1.696   1.851   9.537 -0.5528  0.2779  0.0552
17543SOL    HW154070   1.752   1.784   9.576 -1.7158 -0.0843  1.1784
17543SOL    HW254071   1.647   1.804   9.469  1.6291  0.9548 -2.1319
17544SOL     OW54072   4.772   2.304   5.294 -0.0508 -0.3938  0.4456
17544SOL    HW154073   4.697   2.250   5.272 -1.5215  1.0488  1.6540
17544SOL    HW254074   4.837   2.242   5.328 -1.3676 -1.4932  1.0715
17545SOL     OW54075   2.340   7.156   7.392  0.1160  0.0443 -0.3617
17545SOL    HW154076   2.344   7.245   7.425 -0.9736  0.2852 -0.8320
17545SOL    HW254077   2.272   7.158   7.324 -1.2848 -1.5099  0.8801
17546SOL     OW54078   2.144   2.783   4.213 -0.1520  0.1560 -0.6760
17546SOL    HW154079   2.096   2.799   4.295  0.2059 -0.6286 -0.2969
17546SOL    HW254080   2.224   2.836   4.222  0.2906 -0.5759 -0.1230
17547SOL     OW54081   2.024   7.580   8.556 -0.3489  0.1743  0.6417
17547SOL    HW154082   1.967   7.572   8.632  0.1227 -0.9180  0.8983
17547SOL    HW254083   1.965   7.602   8.484 -1.3214 -2.1379  0.6412
17548SOL     OW54084   3.872   1.261   9.908 -0.3477 -0.1776  0.2074
17548SOL    HW154085   3.903   1.329   9.969 -0.6924  0.4290 -0.2848
17548SOL    HW254086   3.907   1.287   9.823 -3.4620  1.4545 -0.7170
17549SOL     OW54087   6.851   4.587   9.595  0.3832 -0.1171 -0.1750
17549SOL    HW154088   6.761   4.556   9.612  0.4421  0.2501  0.8446
17549SOL    HW254089   6.903   4.507   9.593 -0.1455 -0.4737 -2.1580
17550SOL     OW54090   5.834   7.462  12.074  0.1522 -0.0251 -0.4250
17550SOL    HW154091   5.849   7.556  12.073  1.3022 -0.1839 -0.1922
17550SOL    HW254092   5.852   7.433  11.985 -0.3512 -0.0094 -0.5349
17551SOL     OW54093   5.869   2.507   4.627 -0.0248 -0.0588 -0.1270
17551SOL    HW154094   5.820   2.553   4.695 -0.6096 -0.3731 -0.3256
17551SOL    HW254095   5.865   2.415   4.654 -0.2252 -0.1794 -0.5586
17552SOL     OW54096   1.071   5.514   9.251  0.0041  0.8784  0.2254
17552SOL    HW154097   1.125   5.489   9.326 -0.5096  1.7198  0.8977
17552SOL    HW254098   1.133   5.523   9.179  0.5848  0.5973  0.6808
17553SOL     OW54099   2.764   7.727   9.166 -0.2252  0.0104 -0.7397
17553SOL    HW154100   2.772   7.793   9.097  1.2699  1.0125  0.3282
17553SOL    HW254101   2.853   7.716   9.199 -0.9667  0.0700  1.4720
17554SOL     OW54102   5.135   4.417  10.146  0.2755 -0.4094 -0.6798
17554SOL    HW154103   5.063   4.479  10.159 -0.7107 -1.6432 -0.0061
17554SOL    HW254104   5.102   4.357  10.078  2.0755  1.0376 -2.9577
17555SOL     OW54105   7.489   4.250  11.116  0.2903 -0.2495 -0.2219
17555SOL    HW154106   7.446   4.212  11.040 -2.0912 -1.9105  1.7762
17555SOL    HW254107   7.432   4.323  11.142  2.6004  2.2225 -1.5641
17556SOL     OW54108   7.527   2.846   9.499  0.2668 -0.2525 -0.2970
17556SOL    HW154109   7.461   2.909   9.527 -0.6181 -1.1878 -0.1942
17556SOL    HW254110   7.499   2.818   9.412  1.2835  0.3334 -0.8316
17557SOL     OW54111   7.184   3.617   7.492  0.1867 -0.0290  0.1524
17557SOL    HW154112   7.148   3.695   7.451  0.9425 -1.0209 -2.5981
17557SOL    HW254113   7.171   3.547   7.428 -1.5501 -2.5206  2.9475
17558SOL     OW54114   2.540   4.769   0.377  0.3068 -0.3609 -1.1399
17558SOL    HW154115   2.455   4.727   0.371  0.8291 -1.5704 -0.5314
17558SOL    HW254116   2.523   4.862   0.360 -0.7115 -0.9505 -3.6474
17559SOL     OW54117   4.214   0.238   8.043 -0.5369 -0.1645 -0.4942
17559SOL    HW154118   4.279   0.307   8.033 -2.3586  1.4382 -2.1986
17559SOL    HW254119   4.265   0.158   8.057  1.7171  1.1770 -0.6807
17560SOL     OW54120   1.902   5.343   6.027  0.4345 -0.0864 -0.0121
17560SOL    HW154121   1.866   5.274   5.972 -1.8921  0.9497  0.1007
17560SOL    HW254122   1.938   5.297   6.103 -1.1330 -1.1903  0.1011
17561SOL     OW54123   0.872   2.831  12.292  0.2907 -0.0311 -0.0540
17561SOL    HW154124   0.929   2.789  12.228  0.0100  0.3932 -0.5918
17561SOL    HW254125   0.824   2.759  12.332  0.3159 -0.2835 -0.4717
17562SOL     OW54126   0.605   7.193   7.420  0.2273  0.1627  0.2995
17562SOL    HW154127   0.565   7.129   7.361 -2.2758  0.4918  1.5281
17562SOL    HW254128   0.699   7.181   7.408 -0.1897 -1.2632 -2.1194
17563SOL     OW54129   7.585   7.439   1.631 -0.0176 -0.0911 -0.4298
17563SOL    HW154130   7.601   7.373   1.563 -1.8241  0.0235 -1.0198
17563SOL    HW254131   7.599   7.392   1.713 -1.0667 -1.1784 -0.8374
17564SOL     OW54132   6.238   0.008   7.349 -0.2610 -0.3390 -0.1642
17564SOL    HW154133   6.246  -0.072   7.401  0.4916  0.8015  1.5464
17564SOL    HW254134   6.204  -0.022   7.265  1.0177 -2.6028  0.0435
17565SOL     OW54135   2.755   3.045   1.342 -0.2585  0.2181 -0.1355
17565SOL    HW154136   2.814   3.039   1.416 -0.4723  0.6599  0.0758
17565SOL    HW254137   2.681   3.097   1.374 -0.8831 -0.5452 -0.3145
17566SOL     OW54138   1.020   0.899   5.144 -0.6538  0.0216 -0.1727
17566SOL    HW154139   1.038   0.992   5.132  0.5333 -0.1837 -0.0857
17566SOL    HW254140   1.034   0.860   5.058  0.4692 -0.3059  0.1352
17567SOL     OW54141   2.617   6.763   0.942 -0.2058 -0.9023  0.1386
17567SOL    HW154142   2.669   6.682   0.942 -0.8342 -1.4266  2.9367
17567SOL    HW254143   2.530   6.735   0.912  0.0610 -0.8838 -0.6487
17568SOL     OW54144   0.280   6.795   7.126  0.0519  0.2438  0.3297
17568SOL    HW154145   0.326   6.711   7.115  0.1732  0.3629 -0.0678
17568SOL    HW254146   0.252   6.819   7.038 -1.2976 -0.1188  0.6302
17569SOL     OW54147   3.924   5.168  10.241  0.1001 -0.2883  0.2623
17569SOL    HW154148   3.902   5.076  10.224 -0.7074 -0.6243  2.7426
17569SOL    HW254149   4.020   5.170  10.240  0.1330 -0.6232 -2.1294
17570SOL     OW54150   1.621   4.089  10.831 -0.3229  0.1670  0.0787
17570SOL    HW154151   1.648   4.057  10.745 -2.8545 -0.3460 -0.6256
17570SOL    HW254152   1.602   4.182  10.817  1.0841  0.5620  0.6027
17571SOL     OW54153   6.604   4.347   0.736 -0.1322  0.0267 -0.2639
17571SOL    HW154154   6.561   4.377   0.656 -1.1678  0.4867  0.4546
17571SOL    HW254155   6.549   4.276   0.768  0.6412 -0.6058 -0.2901
17572SOL     OW54156   2.770   1.411   1.068  0.5074  0.1153 -0.1910
17572SOL    HW154157   2.778   1.506   1.071  0.1652  0.1283  0.3199
17572SOL    HW254158   2.819   1.380   1.144 -1.3467  0.0119  1.0016
17573SOL     OW54159   7.106   3.233  12.356  0.5726 -0.4968 -0.1239
17573SOL    HW154160   7.020   3.195  12.377  0.3604  0.4144  0.7231
17573SOL    HW254161   7.109   3.234  12.260 -1.3504  1.5320 -0.2453
17574SOL     OW54162   6.827   2.099  10.246  0.4957  0.3576 -0.2318
17574SOL    HW154163   6.906   2.048  10.264  0.1199  0.1506  0.9105
17574SOL    HW254164   6.797   2.068  10.160  1.3082 -0.0017 -0.3914
17575SOL     OW54165   0.792   6.546   6.777 -0.0568  0.1665 -0.7750
17575SOL    HW154166   0.835   6.630   6.788  0.3264  0.0592 -1.4153
17575SOL    HW254167   0.825   6.492   6.848 -1.3920  0.9753  0.5141
17576SOL     OW54168   0.270   0.762   6.377 -0.6652 -0.3021  0.0432
17576SOL    HW154169   0.288   0.855   6.360 -2.0027  0.2803  1.6341
17576SOL    HW254170   0.180   0.749   6.347 -0.1999 -1.3582 -1.0124
17577SOL     OW54171   3.233   3.042   3.427  0.1174 -0.3694  0.2552
17577SOL    HW154172   3.160   3.073   3.481 -0.1971 -1.7967  0.6994
17577SOL    HW254173   3.278   3.122   3.398  0.7633  0.4581  3.2476
17578SOL     OW54174   4.511   3.245   4.942  0.1780  0.1962 -0.0277
17578SOL    HW154175   4.595   3.254   4.897 -0.7472  0.9734 -1.6745
17578SOL    HW254176   4.528   3.180   5.011  1.7258 -0.8541 -1.3279
17579SOL     OW54177   0.268   3.018   6.203  0.4419  0.0347 -0.3593
17579SOL    HW154178   0.303   2.932   6.226  0.4887  0.1128 -0.1368
17579SOL    HW254179   0.178   3.016   6.233 -0.2678 -0.7487 -2.3533
17580SOL     OW54180   4.899   0.648   6.599 -0.1534  0.0570  0.1853
17580SOL    HW154181   4.976   0.647   6.542 -0.8952 -2.6801 -0.9478
17580SOL    HW254182   4.828   0.676   6.542 -0.7345 -1.7664 -0.0334
17581SOL     OW54183   4.068   6.463  10.873  0.2265 -0.1531 -0.1845
17581SOL    HW154184   4.127   6.487  10.802  2.5006 -0.1595  1.5926
17581SOL    HW254185   4.025   6.545  10.898  0.6963  0.1778 -0.4539
17582SOL     OW54186   0.818   1.230  11.712  0.1403  0.3082 -0.3538
17582SOL    HW154187   0.827   1.311  11.762  1.3193 -0.0570  0.0578
17582SOL    HW254188   0.740   1.243  11.658 -0.3971  1.2304  0.6109
17583SOL     OW54189   4.354   7.277  10.248 -0.1769 -0.1300 -0.7043
17583SOL    HW154190   4.263   7.294  10.270 -0.3835 -0.2207 -1.4889
17583SOL    HW254191   4.352   7.194  10.201  0.2606  0.0972 -1.1226
17584SOL     OW54192   7.872   1.975   8.579 -0.6654 -0.3629 -0.0273
17584SOL    HW154193   7.879   2.066   8.550  3.2533 -0.2270  0.7288
17584SOL    HW254194   7.828   1.980   8.664  0.8808  1.1260  0.7535
17585SOL     OW54195   6.361   3.407   3.271  0.0510  0.2683 -0.5365
17585SOL    HW154196   6.277   3.453   3.272  0.2280  0.6068  0.7199
17585SOL    HW254197   6.375   3.379   3.362  0.2727 -1.7015 -1.1110
17586SOL     OW54198   0.194   5.551   6.735 -0.7134  0.5638  0.5799
17586SOL    HW154199   0.225   5.633   6.773  1.1557  0.3224 -0.3058
17586SOL    HW254200   0.208   5.561   6.641 -1.7367 -0.2645  0.3239
17587SOL     OW54201   2.862   6.747   3.040 -0.9221 -0.0343 -0.1576
17587SOL    HW154202   2.919   6.710   3.107 -1.0116 -2.2474 -1.2062
17587SOL    HW254203   2.774   6.723   3.068 -1.0186 -0.2352 -0.6245
17588SOL     OW54204   2.793   1.547   4.865  0.2943 -0.1979  0.4566
17588SOL    HW154205   2.803   1.635   4.830 -1.6647 -0.0999  0.0894
17588SOL    HW254206   2.804   1.489   4.790 -1.4773 -0.0945  0.0775
17589SOL     OW54207   2.183   1.977   8.354  0.4002 -0.1023  0.1214
17589SOL    HW154208   2.212   1.960   8.443 -0.4011 -1.5982  0.1323
17589SOL    HW254209   2.098   2.020   8.365 -0.3011 -1.4417  0.1051
17590SOL     OW54210   0.315   3.269   3.813 -0.5790 -0.2336  0.0073
17590SOL    HW154211   0.264   3.350   3.805 -0.7666 -0.2204  1.1455
17590SOL    HW254212   0.372   3.284   3.889 -0.9089 -1.3113  0.4867
17591SOL     OW54213   0.999   4.943   5.259 -0.3289 -0.6774  0.0481
17591SOL    HW154214   0.979   4.931   5.166 -0.1186  0.5559 -0.1620
17591SOL    HW254215   0.970   4.861   5.300 -2.1388 -0.5275 -0.8271
17592SOL     OW54216   4.417   1.092   0.742 -0.0446 -0.2475  0.3280
17592SOL    HW154217   4.498   1.137   0.766 -0.9576  1.0074  1.2038
17592SOL    HW254218   4.351   1.128   0.802 -1.6474  0.1937 -1.5771
17593SOL     OW54219   1.147   6.043   3.703  0.7280 -0.2708 -0.2219
17593SOL    HW154220   1.180   6.131   3.684  0.4515  0.0799  0.8071
17593SOL    HW254221   1.055   6.057   3.726  0.3038 -1.0122 -1.3576
17594SOL     OW54222   0.812   5.809  10.359  0.2478  0.3289 -0.0827
17594SOL    HW154223   0.750   5.850  10.420  0.0824 -0.5193  0.3299
17594SOL    HW254224   0.844   5.732  10.406  1.5902  0.7282 -0.3157
17595SOL     OW54225   2.657   7.283  10.096  0.7007 -0.0390  0.1475
17595SOL    HW154226   2.589   7.335  10.138  1.6174  2.8740 -1.6401
17595SOL    HW254227   2.611   7.231  10.031  0.0677  1.8157 -0.9711
17596SOL     OW54228   1.203   4.093   5.583  0.1459  0.7745 -0.3138
17596SOL    HW154229   1.271   4.150   5.618  1.9534 -1.8667  0.7923
17596SOL    HW254230   1.165   4.051   5.660  0.2853 -0.9987 -1.1678
17597SOL     OW54231   5.580   6.843   4.292  0.2802  0.6143  0.1040
17597SOL    HW154232   5.527   6.922   4.304  0.6353  1.3101 -2.3857
17597SOL    HW254233   5.573   6.797   4.376 -1.6465  2.2354  0.9259
17598SOL     OW54234   1.671   7.661   3.630  0.1396  0.2282  0.2737
17598SOL    HW154235   1.757   7.640   3.594  1.0386  2.5028  0.9386
17598SOL    HW254236   1.654   7.591   3.694  0.1704 -1.7812 -1.7605
17599SOL     OW54237   7.368   2.622   2.504 -0.2796 -0.2777  0.3339
17599SOL    HW154238   7.276   2.629   2.530 -0.7148  0.3815 -1.2470
17599SOL    HW254239   7.385   2.703   2.456  1.3262 -0.1054  1.1309
17600SOL     OW54240   2.243   2.022   3.495  0.0002 -0.4419 -0.0484
17600SOL    HW154241   2.329   2.007   3.458  0.6315  1.3213  0.5894
17600SOL    HW254242   2.246   2.113   3.526 -1.4363 -0.9477  1.7251
17601SOL     OW54243   7.437   3.711   8.055  0.2097 -0.1847  0.2319
17601SOL    HW154244   7.361   3.709   7.996  0.2997 -0.9410  0.1218
17601SOL    HW254245   7.467   3.620   8.057  0.5506 -0.0622  1.0032
17602SOL     OW54246   7.610   0.803   9.754  0.0256  0.3902  0.0496
17602SOL    HW154247   7.650   0.721   9.724  0.1569  0.6717 -0.5635
17602SOL    HW254248   7.580   0.845   9.673 -2.1046 -0.1067  0.4998
17603SOL     OW54249   0.156   0.994   2.223  0.6917  0.7041 -0.1482
17603SOL    HW154250   0.109   1.047   2.158 -0.0740  0.8268  0.4779
17603SOL    HW254251   0.127   0.904   2.207  0.0939  0.7996  0.3394
17604SOL     OW54252   2.626   7.463   5.867 -0.4964  0.3701 -0.4193
17604SOL    HW154253   2.596   7.479   5.778 -2.7312  1.2413  0.4005
17604SOL    HW254254   2.641   7.550   5.903 -2.0863  0.2147  0.7643
17605SOL     OW54255   6.762   3.730  10.294 -0.0645 -0.2461 -0.2241
17605SOL    HW154256   6.813   3.729  10.213 -1.0586  0.9328 -0.8957
17605SOL    HW254257   6.770   3.819  10.327 -1.1683 -0.2079 -0.0225
17606SOL     OW54258   5.046   0.932   0.283 -0.7298 -0.0579 -0.3565
17606SOL    HW154259   4.974   0.993   0.295  0.0887  0.9941 -0.5857
17606SOL    HW254260   5.119   0.987   0.254  0.2949 -1.0204  0.3078
17607SOL     OW54261   5.413   1.890  12.165  0.6580 -0.0615 -0.2730
17607SOL    HW154262   5.326   1.855  12.184  1.4597 -0.7692  2.6411
17607SOL    HW254263   5.413   1.904  12.070 -2.9595  1.0153 -0.2859
17608SOL     OW54264   7.616   5.611   8.714 -0.1610  1.0231  0.2363
17608SOL    HW154265   7.645   5.586   8.802 -1.2187  0.1094  0.3513
17608SOL    HW254266   7.668   5.556   8.656 -1.3511 -0.3704  0.4275
17609SOL     OW54267   3.430   7.181   4.863 -0.7211  0.1194 -0.0249
17609SOL    HW154268   3.516   7.156   4.830 -1.2335 -0.9070 -0.6685
17609SOL    HW254269   3.444   7.202   4.955  0.1555 -0.3932 -0.0336
17610SOL     OW54270   5.492   3.822   3.127  0.2465 -0.1153 -0.0855
17610SOL    HW154271   5.556   3.888   3.101 -1.4663  0.9357 -1.8054
17610SOL    HW254272   5.440   3.864   3.195 -0.4084  0.0507 -0.6903
17611SOL     OW54273   6.977   1.493   8.033  0.0537  0.2559  0.3569
17611SOL    HW154274   6.971   1.454   7.946 -0.6996 -0.0535  0.5366
17611SOL    HW254275   7.003   1.584   8.017  1.1449 -0.1295 -0.1071
17612SOL     OW54276   4.844   4.847  10.620  0.3727 -0.0052  0.7338
17612SOL    HW154277   4.755   4.863  10.651 -0.4243  0.2919 -1.5248
17612SOL    HW254278   4.875   4.932  10.589  0.8103 -0.4172  0.0038
17613SOL     OW54279   5.939   3.762   3.171 -0.3349 -0.3501  0.2440
17613SOL    HW154280   5.882   3.746   3.096 -0.9074 -1.6442  0.9351
17613SOL    HW254281   5.975   3.849   3.155 -2.4466  0.4918 -0.2481
17614SOL     OW54282   3.981   6.055   7.013  0.0489  0.0991 -0.6272
17614SOL    HW154283   3.988   6.126   6.949 -1.4755  1.2865  0.4539
17614SOL    HW254284   3.890   6.058   7.042  0.2336 -1.6087  0.2703
17615SOL     OW54285   1.184   0.914  11.298  0.2972 -0.6673 -0.1129
17615SOL    HW154286   1.150   0.924  11.208 -1.0022 -0.1292  0.4087
17615SOL    HW254287   1.117   0.954  11.353  1.5322 -0.1071  1.0438
17616SOL     OW54288   4.111   7.641   1.898 -0.1306  0.0173 -0.4443
17616SOL    HW154289   4.152   7.625   1.983 -1.4039 -0.0368  0.1760
17616SOL    HW254290   4.132   7.732   1.878 -0.7014  0.3505  0.4306
17617SOL     OW54291   2.040   2.406  11.891  0.3840  0.4730  0.1006
17617SOL    HW154292   1.988   2.431  11.968 -0.5245  0.1183 -0.3773
17617SOL    HW254293   2.072   2.489  11.856 -0.3929  0.7640  0.0509
17618SOL     OW54294   2.310   2.726   7.266  0.0102  0.2316 -0.7894
17618SOL    HW154295   2.215   2.713   7.274  0.0237  0.8930  1.1744
17618SOL    HW254296   2.347   2.639   7.279 -0.2442  0.4850  2.4270
17619SOL     OW54297   7.118   1.678   4.902  0.0079 -0.2669  0.4121
17619SOL    HW154298   7.145   1.684   4.993  0.5857  2.0335  0.1301
17619SOL    HW254299   7.034   1.723   4.898 -0.3981 -1.0274 -0.0886
17620SOL     OW54300   4.611   0.667   9.122 -0.2384  0.4030 -0.3780
17620SOL    HW154301   4.634   0.666   9.215 -1.5766 -0.4251 -0.0121
17620SOL    HW254302   4.591   0.575   9.102 -0.1558  0.6054 -1.4289
17621SOL     OW54303   3.517   5.550   0.888  0.8554  0.6223 -0.3528
17621SOL    HW154304   3.444   5.520   0.834  1.3257 -0.8875 -0.1779
17621SOL    HW254305   3.479   5.620   0.942 -0.2325  0.4731 -0.8952
17622SOL     OW54306   4.407   5.711  10.683  0.1919  0.0231  0.1901
17622SOL    HW154307   4.412   5.667  10.599 -0.6574 -0.4637  0.3788
17622SOL    HW254308   4.365   5.647  10.741 -1.1206  1.0753  0.4584
17623SOL     OW54309   5.733   0.485   4.361 -0.4575 -0.0867  0.0038
17623SOL    HW154310   5.813   0.444   4.393 -0.8736  0.6282  2.1422
17623SOL    HW254311   5.762   0.569   4.324 -0.0891 -0.4046 -0.4389
17624SOL     OW54312   3.908   7.943   6.452 -0.3805  0.4536  0.0757
17624SOL    HW154313   3.919   7.901   6.367  1.1049  0.9016  0.0153
17624SOL    HW254314   3.950   8.029   6.442 -2.7366  1.7316  0.3956
17625SOL     OW54315   7.256   6.064  10.425  0.2567  0.3741 -0.3636
17625SOL    HW154316   7.326   6.002  10.445  0.1260  0.6733  1.1218
17625SOL    HW254317   7.267   6.083  10.332  1.0837 -0.8900 -0.5502
17626SOL     OW54318   0.153   2.034   9.461  0.3446 -0.4206 -0.1178
17626SOL    HW154319   0.194   2.064   9.542 -0.0139 -0.8642  0.2394
17626SOL    HW254320   0.070   2.081   9.457  0.4740 -0.2105 -0.3614
17627SOL     OW54321   0.067   6.366   4.457 -0.4543  0.0130  0.0254
17627SOL    HW154322   0.009   6.293   4.481  1.1134 -0.9142  1.1931
17627SOL    HW254323   0.077   6.416   4.538 -0.1948  0.5807 -0.3536
17628SOL     OW54324   5.575   6.909   3.400 -0.2487 -0.1343  0.0887
17628SOL    HW154325   5.486   6.908   3.435 -0.0976 -0.0473  0.4783
17628SOL    HW254326   5.631   6.898   3.477  0.1960  2.3881  0.2332
17629SOL     OW54327   0.534   1.071  11.601  0.6011  0.3762  0.0781
17629SOL    HW154328   0.587   1.062  11.521  0.4245  2.4025 -0.3176
17629SOL    HW254329   0.459   1.123  11.574  0.4859  1.0127  1.5565
17630SOL     OW54330   1.080   7.280   2.887 -0.8914 -0.3244  0.2686
17630SOL    HW154331   1.027   7.356   2.862  1.3086  0.9401 -0.7698
17630SOL    HW254332   1.112   7.301   2.975 -0.9179 -0.4223  0.3021
17631SOL     OW54333   0.292   5.393   0.113  0.2896 -0.0910  0.0688
17631SOL    HW154334   0.206   5.403   0.154  0.5688 -0.8832  0.8815
17631SOL    HW254335   0.287   5.445   0.033 -1.4964 -1.4571 -0.7625
17632SOL     OW54336   1.225   7.616   4.436 -0.3421  0.4446 -0.4551
17632SOL    HW154337   1.175   7.542   4.402 -0.0278  0.7968 -1.7742
17632SOL    HW254338   1.271   7.651   4.359 -0.7495  2.2149  0.0558
17633SOL     OW54339   6.348   1.974   0.659  0.0365 -0.3122 -0.1870
17633SOL    HW154340   6.284   1.927   0.712  1.8328 -2.1863  0.4808
17633SOL    HW254341   6.297   2.039   0.610 -2.1453 -0.8664  1.2258
17634SOL     OW54342   3.414   3.047  10.921 -0.1423 -0.0395  0.2018
17634SOL    HW154343   3.438   3.109  10.990 -1.7004  1.9741 -0.9515
17634SOL    HW254344   3.433   3.093  10.839  1.2087 -2.1863 -0.7988
17635SOL     OW54345   7.908   5.895   7.160  0.3374  0.1766  0.1937
17635SOL    HW154346   7.996   5.859   7.177  0.3099 -0.1472 -0.3451
17635SOL    HW254347   7.857   5.867   7.236  1.0450  1.5900  1.2351
17636SOL     OW54348   6.608   3.343   0.891  0.0376  0.1581 -0.3050
17636SOL    HW154349   6.592   3.300   0.975  1.5508 -1.6272 -0.8480
17636SOL    HW254350   6.654   3.277   0.839 -0.5552  1.3366 -2.4294
17637SOL     OW54351   7.032   6.625   2.041  0.7500 -0.1317 -0.2647
17637SOL    HW154352   6.955   6.614   2.098  0.7304 -0.0341 -0.2706
17637SOL    HW254353   7.006   6.585   1.958  0.6294  0.0848 -0.3311
17638SOL     OW54354   7.365   5.233   9.382  0.4878  0.5470  0.6920
17638SOL    HW154355   7.329   5.217   9.295  0.9900 -0.5607  0.6682
17638SOL    HW254356   7.453   5.267   9.366  0.3514  0.9381  0.7668
17639SOL     OW54357   2.205   2.967   8.319  0.3426 -0.0112  0.5611
17639SOL    HW154358   2.174   3.038   8.262 -0.2145 -0.3895  0.3841
17639SOL    HW254359   2.128   2.912   8.333  0.5803 -0.1692  1.3238
17640SOL     OW54360   3.846   5.194   0.566 -0.1609 -0.0548 -0.3117
17640SOL    HW154361   3.810   5.106   0.579  0.7681 -0.4023 -0.0035
17640SOL    HW254362   3.914   5.202   0.633 -1.1799  1.4445  0.5940
17641SOL     OW54363   1.250   7.356   5.518 -0.2978 -0.0258  0.2639
17641SOL    HW154364   1.247   7.337   5.424 -0.5813 -0.5944  0.3826
17641SOL    HW254365   1.238   7.270   5.560 -0.9919  0.3309  0.8196
17642SOL     OW54366   4.417   4.371   2.691  0.6775 -0.2305 -0.1200
17642SOL    HW154367   4.426   4.295   2.749 -0.8781 -0.5818 -0.2907
17642SOL    HW254368   4.425   4.335   2.603  1.3167  0.0273 -0.1680
17643SOL     OW54369   6.761   2.699   8.759 -0.3090  0.5004  0.0689
17643SOL    HW154370   6.853   2.700   8.788 -0.2389 -0.7787 -0.0420
17643SOL    HW254371   6.744   2.789   8.730  0.9823  0.6940 -0.1483
17644SOL     OW54372   5.707   3.729   4.581 -0.5593  0.0864  0.4756
17644SOL    HW154373   5.713   3.819   4.614  1.1784  0.2791 -0.2823
17644SOL    HW254374   5.743   3.734   4.492 -2.4229 -0.9770 -0.3992
17645SOL     OW54375   1.272   3.460   6.741 -0.8505  0.0570  0.1226
17645SOL    HW154376   1.247   3.414   6.822  1.7839 -1.0092  0.4186
17645SOL    HW254377   1.248   3.399   6.671 -1.9578  0.4310  0.1591
17646SOL     OW54378   0.843   4.831  12.266  0.1077  0.4332 -0.3481
17646SOL    HW154379   0.749   4.847  12.251  0.3501  0.9664 -1.4206
17646SOL    HW254380   0.866   4.764  12.202  0.8136  1.5214 -1.2771
17647SOL     OW54381   4.669   5.949   2.471  0.7753 -0.0446 -0.6542
17647SOL    HW154382   4.748   5.976   2.425  0.7708  2.2431  0.5879
17647SOL    HW254383   4.680   5.978   2.561 -1.5868  0.6214 -0.4965
17648SOL     OW54384   7.062   1.686   3.876  0.1790  0.1138  0.3754
17648SOL    HW154385   7.064   1.729   3.791 -0.4571 -1.8419 -0.7070
17648SOL    HW254386   7.048   1.593   3.855 -0.5382 -0.3522  2.6365
17649SOL     OW54387   5.044   6.727  11.282  0.1193  0.1305  0.0588
17649SOL    HW154388   5.108   6.785  11.324 -0.0594 -0.5223  1.3057
17649SOL    HW254389   4.962   6.777  11.283 -0.3864 -0.5802  2.4421
17650SOL     OW54390   3.059   0.673   6.067  0.0688 -0.3042  0.1798
17650SOL    HW154391   3.093   0.584   6.059 -2.2198 -1.2013 -0.4332
17650SOL    HW254392   3.077   0.713   5.982 -0.2857 -0.7397 -0.1098
17651SOL     OW54393   0.187   7.647  11.007  0.2138  0.0393 -0.0852
17651SOL    HW154394   0.242   7.669  10.932 -1.3406 -2.0393 -1.9745
17651SOL    HW254395   0.109   7.607  10.968 -2.5213  2.4160  2.4440
17652SOL     OW54396   1.569   7.220   9.938 -0.0669  0.2462  0.1166
17652SOL    HW154397   1.631   7.182  10.000  0.4671  1.0000  0.0643
17652SOL    HW254398   1.493   7.243   9.991  0.4970  1.1541  0.5664
17653SOL     OW54399   0.471   3.626   8.943  0.4022 -0.7131  0.3849
17653SOL    HW154400   0.455   3.715   8.975 -0.5000 -0.6403 -0.2440
17653SOL    HW254401   0.553   3.633   8.894 -0.2716  0.0425 -0.6672
17654SOL     OW54402   5.306   7.674   5.247  0.0893 -0.1244 -0.0941
17654SOL    HW154403   5.289   7.585   5.275  1.5590 -0.0127  1.2788
17654SOL    HW254404   5.301   7.670   5.151  1.7475 -2.0537 -0.1670
17655SOL     OW54405   2.907   1.772  11.625 -0.2352  0.6174 -0.2899
17655SOL    HW154406   2.892   1.767  11.530  2.5542 -1.4217 -0.7476
17655SOL    HW254407   2.946   1.859  11.638  0.4627  0.4673 -1.2408
17656SOL     OW54408   5.648   4.433   6.729  0.0811 -0.2929 -0.0928
17656SOL    HW154409   5.702   4.417   6.807 -0.3961 -1.0237  0.1006
17656SOL    HW254410   5.566   4.387   6.747 -0.1953 -0.1075 -0.8459
17657SOL     OW54411   4.259   1.573   0.469  0.3957 -0.0854  0.3758
17657SOL    HW154412   4.264   1.668   0.484 -0.6354  0.2816 -1.3154
17657SOL    HW254413   4.324   1.557   0.400 -0.2907 -0.3824 -0.2124
17658SOL     OW54414   1.112   2.200   4.001 -0.0283 -0.3937  0.6238
17658SOL    HW154415   1.197   2.241   3.988  1.9528 -3.9341  1.1379
17658SOL    HW254416   1.077   2.188   3.912 -0.5867  2.0203  0.4589
17659SOL     OW54417   4.844   6.325   6.530  0.1462 -0.3019 -0.7858
17659SOL    HW154418   4.866   6.415   6.505  1.9639 -0.4011  0.2935
17659SOL    HW254419   4.803   6.288   6.451  1.5422  0.7558 -2.0759
17660SOL     OW54420   6.470   1.418  11.890  0.8325 -0.1008  0.0226
17660SOL    HW154421   6.442   1.407  11.981 -0.6458  1.2354 -0.2064
17660SOL    HW254422   6.565   1.411  11.893  0.7714 -0.6992  1.5705
17661SOL     OW54423   6.809   2.093   0.747 -0.0031  0.5759 -0.4043
17661SOL    HW154424   6.804   2.007   0.704  0.3130  0.6347 -0.5710
17661SOL    HW254425   6.725   2.104   0.790  1.0249 -1.2555  2.3867
17662SOL     OW54426   5.515   0.439   8.879 -0.0358  0.8045  0.4043
17662SOL    HW154427   5.574   0.479   8.815  0.7541  2.0344  1.8423
17662SOL    HW254428   5.532   0.486   8.960 -0.8019 -0.9051  1.6133
17663SOL     OW54429   7.735   7.877   6.639  0.0288  0.0831  0.4149
17663SOL    HW154430   7.827   7.856   6.656  0.4020  1.5774  0.4037
17663SOL    HW254431   7.693   7.872   6.725  0.6320  1.6765  0.8332
17664SOL     OW54432   4.182   4.574   2.377 -0.1234  0.6446 -0.0985
17664SOL    HW154433   4.246   4.639   2.348  0.8190  0.5918  1.7129
17664SOL    HW254434   4.097   4.617   2.366  0.3673  1.5165 -0.5583
17665SOL     OW54435   7.119   0.174  11.952 -0.0682 -0.3425  0.0899
17665SOL    HW154436   7.193   0.206  11.900  0.2590 -2.3032 -0.7093
17665SOL    HW254437   7.041   0.206  11.906  0.2528 -0.1855 -0.3428
17666SOL     OW54438   1.754   5.629   2.553 -0.3606  0.2104 -0.2883
17666SOL    HW154439   1.768   5.535   2.540 -1.0367  0.0187  0.2832
17666SOL    HW254440   1.837   5.661   2.589 -0.4164 -0.3419  0.3535
17667SOL     OW54441   1.827   0.218   2.769  0.3465 -0.1323  0.2490
17667SOL    HW154442   1.840   0.190   2.678 -1.2853  2.9565 -1.0832
17667SOL    HW254443   1.914   0.242   2.800  0.8005 -0.3746 -0.8020
17668SOL     OW54444   0.036   1.409   9.080 -0.5077  0.0126  0.3905
17668SOL    HW154445   0.102   1.367   9.135 -2.6860 -1.2708  2.2067
17668SOL    HW254446   0.020   1.494   9.121  0.7191  0.7995 -0.6872
17669SOL     OW54447   3.095   0.726   1.697  0.2018  0.3037 -0.2539
17669SOL    HW154448   3.009   0.685   1.707  0.5040 -0.2368  0.2224
17669SOL    HW254449   3.143   0.699   1.776  0.9755  0.1721 -0.7585
17670SOL     OW54450   4.294   4.795   9.317  0.0868 -0.1780 -0.0025
17670SOL    HW154451   4.251   4.732   9.259  0.6763 -1.2691  0.6918
17670SOL    HW254452   4.378   4.753   9.338  0.1771  0.5114  1.0729
17671SOL     OW54453   2.827   3.897   9.606  0.2892 -0.0976  0.6085
17671SOL    HW154454   2.919   3.873   9.616  0.2113 -0.7682 -0.1614
17671SOL    HW254455   2.794   3.905   9.695  0.9961 -0.2338  0.8893
17672SOL     OW54456   2.347   0.419   5.894 -0.1455 -0.0218 -0.5545
17672SOL    HW154457   2.314   0.460   5.815  0.2396  0.3607 -0.5236
17672SOL    HW254458   2.380   0.334   5.866 -0.1362  0.0572 -0.7797
17673SOL     OW54459   7.031   5.910   9.951 -0.1506 -0.3794  0.7004
17673SOL    HW154460   7.040   5.820   9.983 -0.9914 -0.5577  0.4615
17673SOL    HW254461   6.996   5.958  10.026 -2.2544 -0.8258  0.0996
17674SOL     OW54462   0.798   0.231   7.787 -0.4665 -0.2165  0.4359
17674SOL    HW154463   0.807   0.275   7.703  0.3359 -0.5812  0.3250
17674SOL    HW254464   0.870   0.168   7.790 -2.1037 -2.1971  0.1930
17675SOL     OW54465   6.772   1.030   0.932 -0.1449 -0.0347 -0.0311
17675SOL    HW154466   6.822   0.959   0.971  0.4847  0.3396 -0.1398
17675SOL    HW254467   6.681   1.010   0.954 -0.1285 -1.5715 -1.1659
17676SOL     OW54468   0.078   1.407   6.496  0.9787  0.1159 -1.2006
17676SOL    HW154469   0.093   1.474   6.430  0.9643  0.6921 -0.6338
17676SOL    HW254470   0.090   1.452   6.580  1.0724 -0.6136 -0.8083
17677SOL     OW54471   0.453   6.840   6.767 -0.0260 -0.3232  0.1984
17677SOL    HW154472   0.380   6.885   6.808  0.3227 -1.6495  2.4325
17677SOL    HW254473   0.420   6.752   6.746  0.1429 -0.0410 -1.4040
17678SOL     OW54474   5.911   6.104   3.309 -0.7520  0.0281 -0.0257
17678SOL    HW154475   5.829   6.056   3.294 -0.2545 -0.8107 -0.1461
17678SOL    HW254476   5.974   6.036   3.332  0.4439  0.3722 -2.0385
17679SOL     OW54477   5.341   5.727   5.334 -0.3663  0.0995 -0.0099
17679SOL    HW154478   5.293   5.680   5.403  1.4649 -0.5597  0.9062
17679SOL    HW254479   5.408   5.776   5.382  0.9858 -0.4069 -1.3008
17680SOL     OW54480   3.579   0.928   3.496 -0.3811  0.1389 -0.0743
17680SOL    HW154481   3.666   0.903   3.528 -0.5251 -0.4425 -0.1215
17680SOL    HW254482   3.520   0.905   3.568 -0.5630 -0.0431 -0.2806
17681SOL     OW54483   0.636   5.231   7.491  0.1145 -0.3558  0.1841
17681SOL    HW154484   0.698   5.232   7.418 -0.3744 -1.7663 -0.2780
17681SOL    HW254485   0.606   5.322   7.498 -0.1535 -0.2740 -1.6554
17682SOL     OW54486   1.120   2.471  12.301  0.1410  0.2711  0.2000
17682SOL    HW154487   1.119   2.380  12.331 -1.0041  0.5585  1.1031
17682SOL    HW254488   1.076   2.520  12.371  0.7323  1.5257 -0.2760
17683SOL     OW54489   5.946   0.409  10.975 -0.3031  0.9384 -0.5862
17683SOL    HW154490   5.957   0.358  10.895 -0.9589 -0.9355  0.4751
17683SOL    HW254491   6.013   0.374  11.034  0.1578  2.2909 -0.2678
17684SOL     OW54492   7.308   4.818   2.686  0.1514 -0.4322 -0.0930
17684SOL    HW154493   7.331   4.879   2.616  0.6442 -0.6773 -0.1517
17684SOL    HW254494   7.341   4.860   2.766 -1.1005  0.2143  0.1063
17685SOL     OW54495   2.768   7.067   3.846  0.4402  0.1619  0.8151
17685SOL    HW154496   2.838   7.030   3.900  1.3058  0.1286 -0.2845
17685SOL    HW254497   2.813   7.101   3.769 -0.6107  1.3955  0.7125
17686SOL     OW54498   1.821   6.730   6.171 -0.0635  0.3113 -0.0249
17686SOL    HW154499   1.739   6.734   6.121  0.5773  0.3452 -1.1042
17686SOL    HW254500   1.857   6.818   6.165  0.5416  0.0425 -0.4156
17687SOL     OW54501   5.942   7.292   3.955 -0.1774  0.2069 -0.1362
17687SOL    HW154502   6.026   7.338   3.955 -0.1011  0.0723 -0.3799
17687SOL    HW254503   5.931   7.262   3.865  1.4191 -3.1926  0.6224
17688SOL     OW54504   4.305   7.931   3.293 -0.2586  0.0708 -0.4379
17688SOL    HW154505   4.307   7.835   3.300 -0.6407  0.0069 -1.1184
17688SOL    HW254506   4.292   7.948   3.199 -0.8700  0.7743 -0.2371
17689SOL     OW54507   2.213   4.666   2.016  0.6184  0.3232 -0.1323
17689SOL    HW154508   2.244   4.581   2.047  1.1827  0.3834 -0.4996
17689SOL    HW254509   2.265   4.682   1.937 -1.1074 -0.0435 -1.3856
17690SOL     OW54510   4.081   6.852   3.678 -0.1312 -0.2056  0.2192
17690SOL    HW154511   4.068   6.848   3.583 -0.9346  0.8366  0.2733
17690SOL    HW254512   4.049   6.939   3.703  3.3823  1.0221  0.9478
17691SOL     OW54513   4.250   2.384   8.725 -0.3118 -0.1505  0.0547
17691SOL    HW154514   4.172   2.437   8.735  0.6660  1.5906 -0.9878
17691SOL    HW254515   4.323   2.444   8.739  0.8680 -1.7261  1.0593
17692SOL     OW54516   1.157   6.475   7.583  0.0563  0.0098  0.1109
17692SOL    HW154517   1.069   6.438   7.572  0.0390  0.3120 -0.8510
17692SOL    HW254518   1.153   6.522   7.666  0.2516 -2.6054  1.7168
17693SOL     OW54519   0.697   5.383  12.343 -0.1190  0.1822 -0.6862
17693SOL    HW154520   0.756   5.398  12.269  1.0585  1.1187  0.4025
17693SOL    HW254521   0.746   5.325  12.401 -0.3997  0.7044  0.0805
17694SOL     OW54522   0.891   5.743   2.308 -0.5412 -0.2039 -0.1001
17694SOL    HW154523   0.835   5.813   2.340 -2.2805 -1.6025  0.1008
17694SOL    HW254524   0.965   5.742   2.369 -1.0973  0.6586  0.6191
17695SOL     OW54525   5.888   1.552   0.226 -0.1560 -0.7552  0.3130
17695SOL    HW154526   5.839   1.627   0.194  1.5160  0.4213  0.4417
17695SOL    HW254527   5.849   1.533   0.312 -1.1301 -0.5919 -0.0798
17696SOL     OW54528   6.897   3.953   8.335 -0.3297 -0.0332  0.1965
17696SOL    HW154529   6.834   3.965   8.263  0.8149  0.6889 -0.7194
17696SOL    HW254530   6.842   3.948   8.413 -1.5450  0.6406 -0.5696
17697SOL     OW54531   5.312   6.812  11.733 -0.3459  0.0926 -0.3880
17697SOL    HW154532   5.401   6.776  11.726  0.0593  1.0299 -0.1687
17697SOL    HW254533   5.277   6.773  11.813  0.4501  0.9205  0.3870
17698SOL     OW54534   0.037   3.296   1.823  0.4869 -0.5169  0.2775
17698SOL    HW154535   0.050   3.207   1.855  0.5066 -0.3693  0.6797
17698SOL    HW254536   0.082   3.299   1.738  1.6023 -0.5046  0.8633
17699SOL     OW54537   4.104   7.437   0.772  0.9943 -0.0891  0.4113
17699SOL    HW154538   4.194   7.424   0.805  1.3157  0.0589 -0.3881
17699SOL    HW254539   4.059   7.356   0.795  1.1394  0.1005  1.4181
17700SOL     OW54540   5.679   6.759   5.267  0.2917 -0.3208  0.1849
17700SOL    HW154541   5.767   6.798   5.270  0.1633 -0.0739  0.8327
17700SOL    HW254542   5.674   6.706   5.347  0.1518 -1.0035 -0.2637
17701SOL     OW54543   7.578   6.898   6.350 -0.1150 -0.7916  0.5909
17701SOL    HW154544   7.488   6.886   6.320  0.1136  0.2625 -0.5861
17701SOL    HW254545   7.621   6.814   6.334 -0.1918 -0.4897 -1.4395
17702SOL     OW54546   7.909   2.806   4.208  0.4011  1.0114 -0.5163
17702SOL    HW154547   7.908   2.871   4.278  0.5954  2.6049 -1.9447
17702SOL    HW254548   7.999   2.773   4.208  0.0090 -0.1864  0.9809
17703SOL     OW54549   1.753   0.063   2.245 -0.3279  0.1910 -0.1912
17703SOL    HW154550   1.842   0.038   2.221 -0.1556 -0.2513  0.8431
17703SOL    HW254551   1.708  -0.020   2.264 -0.7168  0.4562  0.0857
17704SOL     OW54552   1.565   1.798   5.250  0.3649  0.9333  0.4532
17704SOL    HW154553   1.528   1.844   5.175 -0.4745  0.1732  0.3813
17704SOL    HW254554   1.639   1.749   5.213 -1.9431 -2.0327 -0.6551
17705SOL     OW54555   3.299   4.349  11.918 -0.0780  0.1960  0.1284
17705SOL    HW154556   3.296   4.355  12.013  0.2393 -0.3488  0.1762
17705SOL    HW254557   3.269   4.260  11.898  1.6521 -0.3485 -0.1745
17706SOL     OW54558   0.693   3.301   7.967 -1.3212  0.3971  0.1035
17706SOL    HW154559   0.780   3.297   7.928 -1.3814  1.5943 -0.1853
17706SOL    HW254560   0.670   3.209   7.983  0.0062  0.0625  0.2379
17707SOL     OW54561   1.261   3.490   2.349 -0.4674 -0.5609  0.1479
17707SOL    HW154562   1.302   3.423   2.404 -0.6259 -1.7733 -1.1511
17707SOL    HW254563   1.172   3.458   2.334 -0.3023 -0.4890 -1.1316
17708SOL     OW54564   4.912   4.659  12.074  0.0234 -0.0599 -0.5559
17708SOL    HW154565   4.876   4.731  12.125 -2.0024 -0.4182 -1.4173
17708SOL    HW254566   4.922   4.693  11.986 -1.0201 -0.8298 -0.9882
17709SOL     OW54567   2.708   3.931   9.233  0.5797 -0.0161 -0.4153
17709SOL    HW154568   2.725   4.003   9.293  0.7843 -0.6141  0.2546
17709SOL    HW254569   2.710   3.852   9.288 -0.2895 -0.4784 -1.0185
17710SOL     OW54570   0.382   3.301   5.613  0.2105  0.0533 -0.0042
17710SOL    HW154571   0.387   3.397   5.617 -0.3703  0.0465  1.9772
17710SOL    HW254572   0.341   3.283   5.529 -2.0530  1.7006  0.6341
17711SOL     OW54573   7.084   3.791  10.916  0.7215 -0.2267 -0.2112
17711SOL    HW154574   7.019   3.803  10.847 -0.1353  2.7476  0.9546
17711SOL    HW254575   7.108   3.698  10.911 -2.0268 -0.9453 -2.0738
17712SOL     OW54576   3.112   5.372   8.900 -0.1119 -0.1664  0.9828
17712SOL    HW154577   3.043   5.435   8.877  0.2435  1.5219  4.0994
17712SOL    HW254578   3.187   5.426   8.923  1.3217 -1.8986  0.5884
17713SOL     OW54579   0.658   6.161   4.831  0.5819  0.0791  0.3630
17713SOL    HW154580   0.676   6.254   4.818  1.0741 -0.0667  0.0022
17713SOL    HW254581   0.626   6.156   4.921 -2.0512  0.9751 -0.4308
17714SOL     OW54582   3.872   5.719   3.167  0.4237  0.3807 -0.2419
17714SOL    HW154583   3.871   5.815   3.164  1.2660  0.4501  0.9650
17714SOL    HW254584   3.859   5.692   3.076  0.9514  1.6516 -0.7207
17715SOL     OW54585   1.739   4.204   6.688 -0.3901  0.5993 -0.1114
17715SOL    HW154586   1.787   4.199   6.770  0.6208 -0.8281 -0.7523
17715SOL    HW254587   1.660   4.153   6.703  1.2893 -2.5433 -0.9140
17716SOL     OW54588   2.790   0.405   0.704  0.3748 -0.1337  0.2955
17716SOL    HW154589   2.727   0.440   0.641  0.2089 -0.1617  0.4466
17716SOL    HW254590   2.751   0.422   0.789  0.3711 -0.5447  0.3756
17717SOL     OW54591   2.235   5.079  10.873  0.9003  0.5035  0.2703
17717SOL    HW154592   2.193   5.096  10.789 -0.6202 -0.1240  0.8722
17717SOL    HW254593   2.299   5.010  10.855  0.2582  0.0470 -0.2701
17718SOL     OW54594   6.412   2.187   1.036 -0.0535 -0.0181  0.3598
17718SOL    HW154595   6.347   2.230   0.980 -0.2226 -0.2230  0.3996
17718SOL    HW254596   6.369   2.107   1.066  0.0028  0.1288  0.8488
17719SOL     OW54597   0.326   0.678   5.240 -0.3330  0.4039  0.1136
17719SOL    HW154598   0.312   0.667   5.146 -0.3045  0.2821  0.1233
17719SOL    HW254599   0.280   0.604   5.280  0.2763  0.0382  0.1506
17720SOL     OW54600   1.422   6.125   0.604  0.1905 -0.2532  1.0033
17720SOL    HW154601   1.342   6.174   0.626  0.0879 -0.6411  1.5413
17720SOL    HW254602   1.489   6.192   0.594 -0.6100  0.2815 -1.5906
17721SOL     OW54603   7.802   4.762   7.471 -0.2875  0.3941 -0.0559
17721SOL    HW154604   7.808   4.829   7.404  1.7527  1.1831  0.8441
17721SOL    HW254605   7.772   4.809   7.550 -1.2080 -0.2431 -0.0003
17722SOL     OW54606   4.691   2.161   4.020 -0.2806  0.4986 -0.4350
17722SOL    HW154607   4.734   2.247   4.019 -1.9922  1.4098 -0.2721
17722SOL    HW254608   4.724   2.119   4.099  0.9717  0.7776 -0.7793
17723SOL     OW54609   1.944   6.917   3.753  0.5074 -0.4123  0.5142
17723SOL    HW154610   1.879   6.924   3.683  0.4520 -1.8956  0.3900
17723SOL    HW254611   1.916   6.981   3.818 -0.7367 -0.6178  0.1979
17724SOL     OW54612   7.277   2.705  12.187  0.0235 -0.1155 -0.1357
17724SOL    HW154613   7.193   2.667  12.163  0.4360 -2.1177  1.3852
17724SOL    HW254614   7.339   2.632  12.185  1.8218  1.3413 -1.4513
17725SOL     OW54615   2.782   3.338   9.461  0.1254 -0.1811 -0.2468
17725SOL    HW154616   2.831   3.257   9.474 -0.2227 -0.3652 -0.0745
17725SOL    HW254617   2.826   3.402   9.517  0.3579 -0.2681 -0.3301
17726SOL     OW54618   6.193   4.617   1.144 -0.2322 -0.6645  0.3847
17726SOL    HW154619   6.237   4.574   1.071  0.6600  1.3042 -0.3088
17726SOL    HW254620   6.264   4.643   1.203 -0.8320 -0.9593  1.2625
17727SOL     OW54621   0.290   3.520   8.698  0.7802  0.7267  0.6271
17727SOL    HW154622   0.289   3.594   8.760 -0.3846  3.1324 -2.0180
17727SOL    HW254623   0.377   3.523   8.660  0.7556  0.6845  0.5690
17728SOL     OW54624   6.070   5.636  11.770 -0.4636 -0.0786  0.0152
17728SOL    HW154625   6.009   5.671  11.834 -0.9568 -2.1180  0.7220
17728SOL    HW254626   6.127   5.578  11.820  0.4373 -0.1597 -1.0602
17729SOL     OW54627   7.108   4.592   1.137  0.2041 -0.4664 -0.5046
17729SOL    HW154628   7.120   4.604   1.042 -0.1463  1.1867 -0.3727
17729SOL    HW254629   7.013   4.602   1.150  0.0595 -2.0494 -0.1211
17730SOL     OW54630   0.572   2.951   7.317 -0.8155 -0.3668  0.0684
17730SOL    HW154631   0.618   2.880   7.362  1.2718 -0.1119 -1.4922
17730SOL    HW254632   0.505   2.907   7.266 -0.4325 -1.0876  0.1667
17731SOL     OW54633   4.451   7.746   7.940  0.5463 -0.5614  0.3215
17731SOL    HW154634   4.537   7.707   7.923 -0.1608 -2.2373  0.3530
17731SOL    HW254635   4.416   7.765   7.853  0.8107 -0.1428  0.2999
17732SOL     OW54636   3.530   7.393  10.514  0.0707 -0.1347 -0.2979
17732SOL    HW154637   3.438   7.381  10.489  0.0260  1.7465 -1.1628
17732SOL    HW254638   3.543   7.488  10.515  1.7249 -0.3374  0.9022
17733SOL     OW54639   1.507   3.483   2.137 -0.0164  0.3039  0.0756
17733SOL    HW154640   1.499   3.408   2.196  1.9358 -0.1664 -0.1883
17733SOL    HW254641   1.578   3.459   2.077 -3.0170 -0.0396 -3.7250
17734SOL     OW54642   4.133   2.673   1.687  0.5317 -0.5957 -0.3445
17734SOL    HW154643   4.112   2.640   1.775 -0.1034 -2.0968 -1.0263
17734SOL    HW254644   4.083   2.754   1.679 -0.2998 -1.0311  0.2754
17735SOL     OW54645   5.481   1.718   7.911  0.2241  0.1352  0.0455
17735SOL    HW154646   5.514   1.758   7.831  1.1975 -0.0345  0.3575
17735SOL    HW254647   5.386   1.715   7.899  0.2838  0.9878 -0.6894
17736SOL     OW54648   5.491   3.236   6.883 -0.2342 -0.0160 -0.3476
17736SOL    HW154649   5.498   3.254   6.789  0.2934  0.2882 -0.2578
17736SOL    HW254650   5.578   3.203   6.908 -0.5633 -0.7036 -0.0885
17737SOL     OW54651   5.555   6.203   5.495  0.2543  0.7903 -0.2138
17737SOL    HW154652   5.544   6.201   5.590 -2.8159 -1.2051 -0.4660
17737SOL    HW254653   5.563   6.111   5.470  1.4718  1.3101 -1.8907
17738SOL     OW54654   1.122   7.910   8.766  0.2359  0.0893 -0.0566
17738SOL    HW154655   1.135   7.976   8.835 -0.2921  3.5456 -2.9683
17738SOL    HW254656   1.208   7.902   8.725  0.0455 -0.1737 -0.4085
17739SOL     OW54657   4.798   6.196   0.028 -0.0745  0.2965 -0.1336
17739SOL    HW154658   4.718   6.143   0.021 -0.0334  0.2206 -0.0314
17739SOL    HW254659   4.834   6.174   0.114  0.5327 -0.3395 -0.5429
17740SOL     OW54660   0.247   5.298   9.719 -0.1183 -0.2809  0.0064
17740SOL    HW154661   0.211   5.253   9.642 -3.0845  1.2745  0.3167
17740SOL    HW254662   0.290   5.229   9.769 -0.4226 -1.8431 -1.7665
17741SOL     OW54663   0.600   0.521   6.006  0.1458  0.4035  0.4084
17741SOL    HW154664   0.689   0.549   5.987  0.1904  0.5424  0.8104
17741SOL    HW254665   0.600   0.505   6.100 -0.5402  1.4369  0.6013
17742SOL     OW54666   4.710   2.573   1.034 -0.2190  0.2321 -0.2624
17742SOL    HW154667   4.715   2.668   1.027  1.0446  0.2545  0.6486
17742SOL    HW254668   4.763   2.540   0.961 -0.7600  0.2122 -0.6536
17743SOL     OW54669   0.789   4.876  10.012 -0.3727  0.1342  0.2334
17743SOL    HW154670   0.827   4.813  10.074  3.2786  2.3033  0.4733
17743SOL    HW254671   0.775   4.955  10.064 -1.6561  0.6217 -0.7923
17744SOL     OW54672   4.739   3.805   1.658 -0.0116 -0.2188 -0.1676
17744SOL    HW154673   4.728   3.714   1.686 -1.1580 -0.0225  0.0968
17744SOL    HW254674   4.832   3.822   1.665  0.0269 -0.9163  1.2440
17745SOL     OW54675   1.083   2.181   2.775 -0.5128  0.0464  0.1226
17745SOL    HW154676   1.013   2.118   2.757  0.1813 -0.4689 -0.8986
17745SOL    HW254677   1.101   2.221   2.690  1.8034 -1.2866 -0.1055
17746SOL     OW54678   0.705   3.230   2.220  0.2951 -0.2761  0.0592
17746SOL    HW154679   0.670   3.264   2.303 -1.3001  1.8745 -1.3850
17746SOL    HW254680   0.720   3.308   2.167  2.0665 -1.5529 -1.4260
17747SOL     OW54681   2.861   6.240   9.363  0.6619  0.2614 -0.0122
17747SOL    HW154682   2.873   6.221   9.456  0.2180 -0.9445 -0.1833
17747SOL    HW254683   2.899   6.327   9.351  0.8355  0.3795  1.2684
17748SOL     OW54684   0.384   7.837   3.222 -0.2273 -0.0464  0.3336
17748SOL    HW154685   0.455   7.901   3.231 -0.2512  0.0224  0.0645
17748SOL    HW254686   0.419   7.770   3.164 -0.2562 -0.1989  0.4932
17749SOL     OW54687   3.366   6.390   0.930 -0.5433 -0.6870  0.4218
17749SOL    HW154688   3.389   6.297   0.935  1.9001 -0.2409 -0.7899
17749SOL    HW254689   3.348   6.406   0.837 -1.6872 -0.0788  0.7308
17750SOL     OW54690   1.141   4.235   9.439  0.1595 -0.2666 -0.1623
17750SOL    HW154691   1.148   4.331   9.437 -0.0067 -0.1991  1.3878
17750SOL    HW254692   1.049   4.218   9.418 -0.5176  0.0963  2.2430
17751SOL     OW54693   0.866   5.182   5.773 -0.0123  0.5518 -0.0691
17751SOL    HW154694   0.871   5.259   5.831  1.0092 -0.0312  0.6394
17751SOL    HW254695   0.907   5.112   5.823 -0.1837 -0.2624 -1.0505
17752SOL     OW54696   7.133   7.913   1.124  0.0582  0.2782 -0.4595
17752SOL    HW154697   7.078   7.838   1.146 -1.4417  1.7055  0.9614
17752SOL    HW254698   7.092   7.951   1.046  0.7359 -0.2368 -1.0933
17753SOL     OW54699   7.224   7.652  10.087 -0.5412  0.1052 -0.0983
17753SOL    HW154700   7.228   7.566  10.046 -0.1936  0.2449 -0.3694
17753SOL    HW254701   7.178   7.707  10.024 -1.2820 -0.0128  0.3238
17754SOL     OW54702   5.157   0.123   7.230 -0.1165 -0.1443  0.5337
17754SOL    HW154703   5.087   0.082   7.179 -0.4869  1.6426 -0.4583
17754SOL    HW254704   5.231   0.126   7.169 -0.8074  2.7696 -0.2969
17755SOL     OW54705   1.352   7.492   0.429 -0.3733 -0.1792  0.2060
17755SOL    HW154706   1.412   7.500   0.354 -1.4231  0.8190 -0.5676
17755SOL    HW254707   1.266   7.509   0.392 -1.4622 -3.5529  0.8804
17756SOL     OW54708   1.351   6.146   5.884 -0.1407 -0.1298  0.2813
17756SOL    HW154709   1.422   6.123   5.944 -1.1841  0.4764  1.8203
17756SOL    HW254710   1.281   6.084   5.905 -0.5318  0.1004 -0.3031
17757SOL     OW54711   2.916   0.381   4.910  0.4918  0.7927 -0.0361
17757SOL    HW154712   2.902   0.291   4.939  0.1808  0.5222 -0.9796
17757SOL    HW254713   2.837   0.428   4.937  0.8211  0.8761  0.7969
17758SOL     OW54714   2.022   7.026   1.073  0.1349 -0.3433  0.1690
17758SOL    HW154715   1.970   7.079   1.134 -2.0061 -1.5915 -0.4470
17758SOL    HW254716   2.110   7.063   1.079 -0.8856  2.2747  0.8979
17759SOL     OW54717   5.358   6.957   4.362 -0.1522 -0.4613 -0.0916
17759SOL    HW154718   5.311   6.880   4.394 -0.4054 -0.5504 -0.6617
17759SOL    HW254719   5.353   7.020   4.434  1.5623 -1.5818  1.0836
17760SOL     OW54720   0.138   3.659  10.037 -0.2970 -0.0848 -0.1878
17760SOL    HW154721   0.141   3.577   9.989  2.8254  1.7040 -3.5833
17760SOL    HW254722   0.071   3.711   9.993 -0.1656  0.2071 -0.0525
17761SOL     OW54723   6.262   3.130  10.323 -0.0093 -0.3963 -0.1047
17761SOL    HW154724   6.298   3.065  10.263 -0.1300 -0.8535  0.3082
17761SOL    HW254725   6.202   3.080  10.379  0.8994 -0.1847  1.0889
17762SOL     OW54726   6.402   2.228   8.511  0.9173  0.0329  0.1956
17762SOL    HW154727   6.322   2.265   8.549  1.3667  0.1091  1.1037
17762SOL    HW254728   6.431   2.163   8.576  1.7646  0.2398  0.0351
17763SOL     OW54729   4.320   5.547   4.881  0.0371 -0.3529 -0.1186
17763SOL    HW154730   4.239   5.524   4.925 -0.0959 -0.3580 -0.3642
17763SOL    HW254731   4.318   5.498   4.799 -0.4186  0.7836 -0.8123
17764SOL     OW54732   1.039   7.738  10.739 -0.8356  0.3269 -0.0134
17764SOL    HW154733   1.046   7.731  10.835 -1.0107  0.7652  0.0393
17764SOL    HW254734   1.129   7.749  10.709 -0.7283 -0.3404  0.0493
17765SOL     OW54735   7.007   3.399   1.035  0.0645 -0.2001 -0.0429
17765SOL    HW154736   7.022   3.392   0.941  2.6019 -0.0342  0.2662
17765SOL    HW254737   6.995   3.309   1.065  2.1723 -0.6054 -0.2014
17766SOL     OW54738   7.263   7.523   5.169  0.2157  0.1768 -0.4507
17766SOL    HW154739   7.338   7.466   5.150 -1.3727 -2.0733 -0.2714
17766SOL    HW254740   7.241   7.506   5.260 -0.4130  0.9687 -0.4390
17767SOL     OW54741   5.239   1.108   3.868  0.1885 -0.0006 -0.1912
17767SOL    HW154742   5.268   1.197   3.849 -0.9053  0.2776 -0.6741
17767SOL    HW254743   5.318   1.055   3.862  0.7376  0.8419 -0.5902
17768SOL     OW54744   2.012   4.303  10.113 -0.0968 -0.7944  0.3271
17768SOL    HW154745   2.104   4.279  10.124 -0.2842 -0.8466  2.0891
17768SOL    HW254746   1.964   4.227  10.146 -0.7658 -0.4764  0.1044
17769SOL     OW54747   4.225   7.619   6.729 -0.1392 -0.2621  0.3870
17769SOL    HW154748   4.146   7.610   6.676 -0.5789 -0.4343  1.0558
17769SOL    HW254749   4.220   7.708   6.764  0.4090  0.0309 -0.2541
17770SOL     OW54750   2.720   0.710   9.098 -0.0651 -0.3501 -0.0490
17770SOL    HW154751   2.800   0.727   9.148 -0.0086  0.2901 -0.3382
17770SOL    HW254752   2.748   0.651   9.028  0.4965  0.9825 -1.0047
17771SOL     OW54753   4.903   7.603  11.650 -0.5924  1.0601 -0.3614
17771SOL    HW154754   4.873   7.606  11.559  1.2995 -0.2016 -1.0749
17771SOL    HW254755   4.945   7.688  11.665 -1.0971  1.3527 -0.5790
17772SOL     OW54756   0.041   6.816   1.815  0.0857 -0.5145 -0.2575
17772SOL    HW154757   0.058   6.902   1.854  1.7414 -1.0271  0.2219
17772SOL    HW254758   0.089   6.816   1.733 -2.0335 -0.0659 -1.5743
17773SOL     OW54759   7.036   2.607  11.653 -0.4439  0.1978 -0.1474
17773SOL    HW154760   6.970   2.578  11.590 -0.3664  0.2458 -0.2509
17773SOL    HW254761   7.097   2.534  11.659 -0.2683  0.3268 -0.3817
17774SOL     OW54762   0.172   7.352  10.538 -0.3129 -0.1846  0.2308
17774SOL    HW154763   0.120   7.426  10.570 -0.6436  0.2951 -1.3154
17774SOL    HW254764   0.121   7.274  10.561 -0.9522  0.1974  0.1373
17775SOL     OW54765   5.206   2.884   0.530 -0.5178  0.0901  0.8071
17775SOL    HW154766   5.148   2.830   0.584 -1.2643 -1.3736 -1.3221
17775SOL    HW254767   5.274   2.824   0.500 -1.9585 -0.0993 -2.4925
17776SOL     OW54768   0.548   3.572   4.504 -0.1576  0.1194 -0.3027
17776SOL    HW154769   0.529   3.479   4.499  1.4607 -0.2277 -0.4921
17776SOL    HW254770   0.501   3.602   4.582 -1.2290 -0.6951 -0.6141
17777SOL     OW54771   5.159   7.819   1.819 -0.5344 -0.4466  0.1827
17777SOL    HW154772   5.114   7.744   1.859  1.6660 -2.2003 -0.4023
17777SOL    HW254773   5.228   7.842   1.882  0.9067 -1.1342 -1.0879
17778SOL     OW54774   7.505   5.548   9.044  0.5438 -0.1885  0.4069
17778SOL    HW154775   7.594   5.516   9.032 -0.0369 -1.2647 -1.4336
17778SOL    HW254776   7.474   5.505   9.123  1.9314  0.9127  1.5976
17779SOL     OW54777   7.424   2.289  10.570  0.2694 -0.1077  0.1979
17779SOL    HW154778   7.361   2.229  10.530 -1.1994  1.8454 -0.6055
17779SOL    HW254779   7.497   2.233  10.599 -0.0357 -2.0059 -2.3842
17780SOL     OW54780   4.378   4.850   3.027 -0.2061  0.1945 -0.2564
17780SOL    HW154781   4.401   4.783   2.962  1.4598  0.6070 -0.1458
17780SOL    HW254782   4.459   4.864   3.077 -0.7663  1.6563  0.3074
17781SOL     OW54783   0.614   4.000   1.879  0.4507  0.7539 -0.2626
17781SOL    HW154784   0.694   4.041   1.910  0.0605  1.7187 -0.4805
17781SOL    HW254785   0.602   4.036   1.790  1.4984 -1.8580 -1.5666
17782SOL     OW54786   5.868   4.988   9.271 -0.0218 -0.1093 -0.0192
17782SOL    HW154787   5.820   5.058   9.229 -1.0888 -0.7718  0.0675
17782SOL    HW254788   5.950   5.029   9.300 -1.2028  1.4635  1.2745
17783SOL     OW54789   5.372   3.441   5.813 -0.0250  0.4524 -0.3527
17783SOL    HW154790   5.344   3.349   5.816  2.2063 -0.2749 -0.0425
17783SOL    HW254791   5.291   3.491   5.820 -1.1413 -1.4802  2.1371
17784SOL     OW54792   1.400   6.803   8.929 -0.0046  0.6752  0.3050
17784SOL    HW154793   1.458   6.857   8.874 -1.3243 -1.2138 -3.2976
17784SOL    HW254794   1.319   6.853   8.934  0.2621  1.0505  0.9607
17785SOL     OW54795   6.273   3.278   0.701 -0.2308 -0.0599 -0.3875
17785SOL    HW154796   6.261   3.216   0.772  0.1848 -0.4366 -0.6399
17785SOL    HW254797   6.193   3.271   0.648  0.1870 -1.0397 -0.9137
17786SOL     OW54798   5.681   4.390   2.132 -0.2063  0.2257 -0.1540
17786SOL    HW154799   5.594   4.398   2.170 -2.4471 -1.0683 -4.3994
17786SOL    HW254800   5.708   4.300   2.151 -0.3729  0.2248  0.0816
17787SOL     OW54801   0.617   4.762   2.516  1.1662 -0.5182 -0.0515
17787SOL    HW154802   0.687   4.747   2.579  1.1774 -0.1180  0.0340
17787SOL    HW254803   0.621   4.687   2.457 -0.1741 -2.0380  1.6422
17788SOL     OW54804   2.261   2.560   8.077  0.7349  0.3803  0.3692
17788SOL    HW154805   2.210   2.590   8.153  1.5469 -0.9894  1.4983
17788SOL    HW254806   2.335   2.513   8.115 -0.0699 -2.4087 -1.2545
17789SOL     OW54807   3.823   2.446   2.654  0.6250 -0.0796 -0.1028
17789SOL    HW154808   3.794   2.394   2.729  0.4453 -0.4487 -0.4233
17789SOL    HW254809   3.906   2.485   2.682  1.0294 -0.9595 -0.0448
17790SOL     OW54810   1.886   2.617   7.582 -0.0119  0.6207  0.1746
17790SOL    HW154811   1.838   2.552   7.529  0.5632  0.7773 -0.5587
17790SOL    HW254812   1.838   2.619   7.665 -2.1804  1.8217 -1.0016
17791SOL     OW54813   3.840   7.885   5.523  0.3118  0.1500 -0.0160
17791SOL    HW154814   3.816   7.794   5.509  2.5455 -0.4873 -0.1061
17791SOL    HW254815   3.832   7.898   5.617  0.3465 -0.2644  0.0466
17792SOL     OW54816   1.807   1.499  11.210 -0.3721 -0.9746 -0.0744
17792SOL    HW154817   1.811   1.534  11.121  0.3756  0.7074  0.5737
17792SOL    HW254818   1.714   1.502  11.233 -0.3373  0.6460 -0.0601
17793SOL     OW54819   5.417   1.399  10.448  0.5716 -0.4027 -0.4906
17793SOL    HW154820   5.414   1.336  10.520  1.0692  0.3451  0.1974
17793SOL    HW254821   5.444   1.347  10.372 -0.0816 -1.2231 -0.1779
17794SOL     OW54822   6.526   0.984   0.867 -0.7338  0.0406  0.0345
17794SOL    HW154823   6.458   0.935   0.821 -0.6564  0.9369 -1.0966
17794SOL    HW254824   6.479   1.055   0.910 -0.5188  0.8702 -1.0384
17795SOL     OW54825   7.201   7.734  11.363 -0.4469 -0.3470 -0.3625
17795SOL    HW154826   7.207   7.641  11.386 -1.1563 -0.1422  0.7524
17795SOL    HW254827   7.207   7.735  11.268  1.3666 -1.3666 -0.3164
17796SOL     OW54828   6.513   0.369   6.240  0.3305  0.3561 -0.3308
17796SOL    HW154829   6.572   0.427   6.192 -1.5031  0.4545 -2.6082
17796SOL    HW254830   6.460   0.428   6.294  0.1482  0.5627 -0.7340
17797SOL     OW54831   6.469   3.309  10.436 -0.2420 -0.8242  0.4080
17797SOL    HW154832   6.420   3.331  10.515  0.1976 -1.2815  0.8146
17797SOL    HW254833   6.409   3.255  10.384 -0.3825 -0.8740  0.6238
17798SOL     OW54834   0.877   6.094   9.759  0.1487  0.6848  0.1433
17798SOL    HW154835   0.855   6.031   9.827  0.7796  0.7833  0.4424
17798SOL    HW254836   0.885   6.042   9.679 -1.2224  0.6481 -0.0085
17799SOL     OW54837   5.355   7.333   4.860  0.0142 -0.0728 -0.8725
17799SOL    HW154838   5.288   7.355   4.795 -1.0734  0.1789  0.2944
17799SOL    HW254839   5.307   7.323   4.942  1.2440 -1.1958 -0.2502
17800SOL     OW54840   7.823   1.136   4.416 -0.3943  0.0324  0.5351
17800SOL    HW154841   7.754   1.178   4.366  0.0540  0.2421  0.0898
17800SOL    HW254842   7.873   1.208   4.454  0.9815 -0.0297 -1.0389
17801SOL     OW54843   1.874   7.016   1.570 -0.2023  0.0744 -0.2857
17801SOL    HW154844   1.878   7.005   1.475 -1.4077  1.1709 -0.4917
17801SOL    HW254845   1.886   6.927   1.605 -1.0960 -0.5623 -1.5132
17802SOL     OW54846   7.949   6.264   0.137 -0.2888  0.0226 -0.1232
17802SOL    HW154847   8.042   6.288   0.134  0.5263 -2.7756 -0.1846
17802SOL    HW254848   7.945   6.190   0.197 -2.6503  0.5133  0.4508
17803SOL     OW54849   4.495   2.456   9.321  0.1532 -0.3342  0.2407
17803SOL    HW154850   4.481   2.466   9.415  0.4280  1.3060  0.1398
17803SOL    HW254851   4.578   2.409   9.314 -0.4350 -1.4946  0.8029
17804SOL     OW54852   1.387   7.333   8.345 -0.2520  0.1402 -0.3947
17804SOL    HW154853   1.463   7.358   8.293  0.7141 -0.0355  0.8905
17804SOL    HW254854   1.421   7.323   8.434 -1.5469 -1.0879 -0.0064
17805SOL     OW54855   3.486   6.231   6.288 -0.0386 -0.6357 -0.0277
17805SOL    HW154856   3.526   6.145   6.276  0.2124 -0.7529  1.4202
17805SOL    HW254857   3.471   6.237   6.383 -1.3753  0.3313 -0.2729
17806SOL     OW54858   4.109   5.853   6.933 -0.2895  0.0424  0.0644
17806SOL    HW154859   4.063   5.919   6.985  0.3723  0.2576  0.3884
17806SOL    HW254860   4.051   5.836   6.859 -0.7793  0.4835  0.3401
17807SOL     OW54861   7.422   4.137   4.724  0.5417  0.1424  0.0835
17807SOL    HW154862   7.455   4.170   4.807 -1.4251  1.2023  0.5106
17807SOL    HW254863   7.439   4.208   4.661  0.1913  0.1820  0.0329
17808SOL     OW54864   5.622   6.433   1.708 -1.1297  0.3963  0.2921
17808SOL    HW154865   5.625   6.368   1.638 -1.1037 -0.8941  1.4684
17808SOL    HW254866   5.570   6.505   1.671  0.0883  0.3865 -1.5464
17809SOL     OW54867   3.570   6.685   0.148  0.2050  0.4790  0.2120
17809SOL    HW154868   3.554   6.591   0.153 -0.8480  0.6953  1.6199
17809SOL    HW254869   3.665   6.694   0.147  0.3360 -0.6217 -1.3475
17810SOL     OW54870   4.019   7.918   0.798  0.1746 -0.4183 -1.2551
17810SOL    HW154871   4.005   7.833   0.756  0.3828 -1.0417 -0.1169
17810SOL    HW254872   3.961   7.917   0.874  1.5767 -0.3727 -0.1321
17811SOL     OW54873   4.149   0.888   5.001 -0.3096  0.3744 -0.0860
17811SOL    HW154874   4.167   0.878   5.095  0.1558  3.8595  0.2982
17811SOL    HW254875   4.070   0.835   4.987 -0.7219  0.2048  2.3932
17812SOL     OW54876   6.922   5.697  11.168 -0.3895 -0.4673  0.1839
17812SOL    HW154877   6.838   5.665  11.134 -0.4370 -0.3879  0.2266
17812SOL    HW254878   6.974   5.715  11.090  0.3001 -2.3702  0.1398
17813SOL     OW54879   7.761   4.260   3.877  0.2306  0.0686 -0.5452
17813SOL    HW154880   7.733   4.272   3.968 -0.7531 -0.3241 -0.7866
17813SOL    HW254881   7.852   4.290   3.876  0.2913 -0.0372  0.5941
17814SOL     OW54882   7.031   3.633  10.669  0.2338 -0.2826 -0.0033
17814SOL    HW154883   6.966   3.703  10.666  1.7065  1.1808  0.6284
17814SOL    HW254884   7.028   3.594  10.582  1.6927  2.8164 -1.5824
17815SOL     OW54885   5.776   2.135   5.362  0.3421  0.2670  0.2491
17815SOL    HW154886   5.723   2.212   5.341  0.8575  0.6876  0.4671
17815SOL    HW254887   5.715   2.073   5.401 -0.2136  0.2928 -0.5599
17816SOL     OW54888   6.038   2.018   6.109  0.0466  0.3878 -0.3034
17816SOL    HW154889   6.022   2.014   6.015 -2.6930 -0.4676  0.0980
17816SOL    HW254890   6.071   2.106   6.124 -0.4664  0.8910 -1.9440
17817SOL     OW54891   0.494   5.860   7.461  0.2586 -0.3668 -0.1624
17817SOL    HW154892   0.503   5.916   7.384  0.6608 -0.2899 -0.0634
17817SOL    HW254893   0.440   5.911   7.522  0.5645 -0.1099 -0.1003
17818SOL     OW54894   4.810   0.272  10.203  0.1043  0.2877 -0.6698
17818SOL    HW154895   4.747   0.298  10.135  0.7120  0.0865 -1.3193
17818SOL    HW254896   4.818   0.177  10.193  1.8440  0.5139 -1.7904
17819SOL     OW54897   1.082   3.446   6.219  0.1554 -0.3195  0.3735
17819SOL    HW154898   1.008   3.434   6.159  0.4049 -0.5416  0.1053
17819SOL    HW254899   1.042   3.443   6.307 -0.1272 -0.6308  0.2383
17820SOL     OW54900   4.776   2.096   4.984 -0.0140  0.5110  0.2061
17820SOL    HW154901   4.853   2.107   5.039  1.6755 -0.9659 -1.7390
17820SOL    HW254902   4.778   2.005   4.957 -1.6483  0.8036 -1.0573
17821SOL     OW54903   5.254   4.265   2.193 -0.2687  0.1666  0.1032
17821SOL    HW154904   5.296   4.252   2.278  1.9221  0.0780 -0.9094
17821SOL    HW254905   5.167   4.227   2.203  0.4923 -1.2815  1.8596
17822SOL     OW54906   1.719   5.094   8.386 -0.8372  0.4277 -0.1473
17822SOL    HW154907   1.721   5.165   8.322  0.0445  0.7193  0.1857
17822SOL    HW254908   1.691   5.136   8.468  2.3062  1.0360  0.7492
17823SOL     OW54909   5.610   0.588   3.185 -0.0166  0.3280 -0.1745
17823SOL    HW154910   5.586   0.673   3.149 -0.7785 -0.4419 -1.5673
17823SOL    HW254911   5.690   0.564   3.138 -0.1641 -0.0105 -0.2530
17824SOL     OW54912   1.247   2.687   9.354  0.6553 -0.4320  0.0154
17824SOL    HW154913   1.240   2.778   9.383  1.7225 -0.2946 -0.1007
17824SOL    HW254914   1.331   2.658   9.389 -0.9951 -2.3657  2.6660
17825SOL     OW54915   7.729   4.264   4.623  0.0667 -0.4611 -0.7064
17825SOL    HW154916   7.712   4.174   4.594 -0.5806 -1.1614  1.6394
17825SOL    HW254917   7.648   4.311   4.603 -1.3540 -1.5328  1.9597
17826SOL     OW54918   0.481   0.831   7.155  0.0016 -0.6440 -0.4404
17826SOL    HW154919   0.457   0.916   7.116 -2.8695 -0.4419  1.5102
17826SOL    HW254920   0.552   0.852   7.215 -1.2219  0.6158  0.6394
17827SOL     OW54921   0.516   5.061   6.314 -0.3129 -0.0414  0.0223
17827SOL    HW154922   0.467   5.016   6.383 -0.9138 -0.2813 -0.5477
17827SOL    HW254923   0.500   5.154   6.330 -0.1954 -0.0831  0.3897
17828SOL     OW54924   7.644   5.086   6.008  0.0393  0.0634  0.3519
17828SOL    HW154925   7.567   5.136   6.036 -1.0207 -0.5625 -1.2317
17828SOL    HW254926   7.679   5.048   6.088  0.4326  2.6715  1.4932
17829SOL     OW54927   0.171   4.868   3.778  0.5110  0.3788 -0.1542
17829SOL    HW154928   0.145   4.928   3.848  1.8996  0.6388  0.1872
17829SOL    HW254929   0.218   4.924   3.716 -1.1348  0.2434 -1.5841
17830SOL     OW54930   2.342   2.901   0.824  0.3818  0.4363 -0.1209
17830SOL    HW154931   2.318   2.988   0.856  2.3393  1.3110 -0.8859
17830SOL    HW254932   2.274   2.843   0.858 -0.4280  2.1090  1.2330
17831SOL     OW54933   3.264   5.372   8.320  0.1138  0.4440 -0.3560
17831SOL    HW154934   3.253   5.358   8.226 -2.0084  1.7005 -0.3470
17831SOL    HW254935   3.209   5.304   8.361  2.3713 -1.2324  0.0966
17832SOL     OW54936   0.961   5.108   9.070  0.1696 -0.0616 -0.0946
17832SOL    HW154937   1.050   5.139   9.087 -0.3855  0.5348  2.1402
17832SOL    HW254938   0.960   5.018   9.102 -0.1329  0.1007  0.3776
17833SOL     OW54939   4.793   1.263   5.332  0.0412 -0.1867  0.2796
17833SOL    HW154940   4.876   1.216   5.333 -0.2375 -0.7059 -0.0480
17833SOL    HW254941   4.794   1.312   5.250 -0.3124 -0.8404 -0.1298
17834SOL     OW54942   5.400   0.863   9.826 -0.1203 -0.4564 -0.0489
17834SOL    HW154943   5.481   0.855   9.876  0.0804 -0.4802 -0.3759
17834SOL    HW254944   5.353   0.782   9.842 -0.2994 -0.2407  0.5271
17835SOL     OW54945   0.565   6.610   2.746  0.1089  0.0578  0.6512
17835SOL    HW154946   0.634   6.658   2.792  3.5652 -4.4525  0.9230
17835SOL    HW254947   0.534   6.545   2.810 -1.4525 -0.6827 -0.7651
17836SOL     OW54948   1.748   5.787   1.157  0.4305 -0.5023  0.2610
17836SOL    HW154949   1.765   5.843   1.082 -0.8716  0.2036  0.4639
17836SOL    HW254950   1.685   5.836   1.210  1.4182 -0.9231  1.8829
17837SOL     OW54951   2.301   1.225   1.034  0.1213 -0.5125 -0.0584
17837SOL    HW154952   2.384   1.233   1.081 -0.5192  2.2617  0.7962
17837SOL    HW254953   2.241   1.186   1.098  0.0651  0.2148  0.3441
17838SOL     OW54954   6.995   5.410   9.211  0.2504  0.0144  0.2950
17838SOL    HW154955   7.033   5.385   9.295  0.9070 -0.8547 -0.2450
17838SOL    HW254956   7.011   5.504   9.204  0.3079  0.0633  1.0815
17839SOL     OW54957   5.074   3.352   6.044  0.2441  0.0943  0.2859
17839SOL    HW154958   5.128   3.417   6.089 -0.6910  0.2384  1.2464
17839SOL    HW254959   5.034   3.400   5.972  0.2353  0.3636  0.4669
17840SOL     OW54960   6.923   0.514   8.638  0.6058 -0.3016 -0.2383
17840SOL    HW154961   7.012   0.537   8.612  0.7595  1.2159  1.4109
17840SOL    HW254962   6.868   0.586   8.605  0.0804 -0.8786 -0.6489
17841SOL     OW54963   4.400   1.888   9.228 -0.1579  0.5014  0.0706
17841SOL    HW154964   4.362   1.852   9.308 -2.7753  1.7809 -0.4704
17841SOL    HW254965   4.391   1.819   9.163  0.7981 -0.0948  0.5656
17842SOL     OW54966   1.165   3.348  10.239 -0.0705 -0.2910  0.1660
17842SOL    HW154967   1.235   3.293  10.275  0.5393  1.0933  1.1831
17842SOL    HW254968   1.172   3.430  10.287 -1.7972  0.2288 -0.3954
17843SOL     OW54969   1.362   0.647   7.216 -0.3908  0.8011  0.0900
17843SOL    HW154970   1.435   0.594   7.185 -1.3582 -0.1882 -0.5510
17843SOL    HW254971   1.356   0.627   7.309 -0.8899 -0.4271 -0.1858
17844SOL     OW54972   0.416   3.549   3.181 -0.3941  0.0754  0.1505
17844SOL    HW154973   0.452   3.463   3.203 -1.2628 -0.7426 -1.3964
17844SOL    HW254974   0.341   3.559   3.240  0.0314  0.0235  0.7050
17845SOL     OW54975   0.701   6.328   4.385  0.7498  0.5444 -0.0467
17845SOL    HW154976   0.663   6.241   4.382  0.7415  0.5536 -0.2361
17845SOL    HW254977   0.628   6.386   4.407  0.7175  0.5258 -0.1077
17846SOL     OW54978   4.122   7.610   3.176 -0.3511 -0.4955  0.0499
17846SOL    HW154979   4.081   7.534   3.218 -1.2009 -0.3104 -0.4045
17846SOL    HW254980   4.215   7.600   3.192 -0.2294 -2.6258 -1.5492
17847SOL     OW54981   7.824   4.274   5.542  0.3420 -0.4323 -0.3067
17847SOL    HW154982   7.775   4.351   5.571  0.3045 -0.3052 -0.7046
17847SOL    HW254983   7.882   4.306   5.474  0.9093 -0.6031  0.0821
17848SOL     OW54984   2.513   4.107  11.038 -0.6693  0.2909  0.2826
17848SOL    HW154985   2.444   4.108  11.104 -2.3767  1.2193 -1.4104
17848SOL    HW254986   2.506   4.192  10.994  1.5926  0.4212  0.0470
17849SOL     OW54987   5.614   3.426  12.078  0.2001 -1.0368 -0.1054
17849SOL    HW154988   5.531   3.410  12.034 -0.8604  0.6370  1.1275
17849SOL    HW254989   5.671   3.462  12.010 -0.3933 -1.3290 -0.7682
17850SOL     OW54990   1.518   0.763   4.020 -0.5190 -0.0972  0.4369
17850SOL    HW154991   1.461   0.836   3.996 -1.2176 -0.3911  1.1676
17850SOL    HW254992   1.487   0.736   4.106  0.3076 -0.6887  0.5543
17851SOL     OW54993   0.353   0.913   4.431  0.2454 -0.5246 -0.4377
17851SOL    HW154994   0.387   0.856   4.362  1.5130 -1.2139  0.7028
17851SOL    HW254995   0.271   0.871   4.458  0.3829 -0.9512 -0.6716
17852SOL     OW54996   3.971   7.054   6.484 -0.2875  0.2423 -0.3356
17852SOL    HW154997   3.890   7.004   6.495  0.2630 -0.7655 -0.6415
17852SOL    HW254998   4.039   6.997   6.520  0.1014  1.8063  1.5331
17853SOL     OW54999   6.153   7.523  12.079  0.3543  0.4260  0.4690
17853SOL    HW155000   6.226   7.583  12.088  0.2238  0.4533  1.4602
17853SOL    HW255001   6.174   7.450  12.138  0.4065 -0.3998 -0.5398
17854SOL     OW55002   3.311   0.509   1.770  0.6599 -0.7198  0.1313
17854SOL    HW155003   3.251   0.531   1.842  1.2250 -1.2498  0.7884
17854SOL    HW255004   3.360   0.590   1.754 -1.1186  0.1312 -1.3391
17855SOL     OW55005   0.308   0.837   3.740  0.1827  0.0183 -0.5051
17855SOL    HW155006   0.312   0.874   3.652 -1.2060  0.6741 -0.3221
17855SOL    HW255007   0.224   0.867   3.774 -0.2359 -1.9437  0.2882
17856SOL     OW55008   4.372   7.364   4.464 -0.1131  0.5601  0.0120
17856SOL    HW155009   4.443   7.306   4.492 -1.8654 -1.4299  0.6319
17856SOL    HW255010   4.387   7.378   4.370  0.9210 -0.0696  0.0769
17857SOL     OW55011   4.285   0.342   6.637  0.9053  0.0828 -0.5065
17857SOL    HW155012   4.228   0.404   6.592 -0.2380  0.6218  1.5472
17857SOL    HW255013   4.366   0.390   6.653  0.8560  0.2931 -0.8794
17858SOL     OW55014   3.498   5.610  11.210  0.7486 -0.3972 -0.2058
17858SOL    HW155015   3.565   5.568  11.265 -0.7094  0.0007  2.0315
17858SOL    HW255016   3.514   5.704  11.220 -0.7219 -0.2405  1.3085
17859SOL     OW55017   3.439   7.916   4.271  0.1491 -0.1812  0.8063
17859SOL    HW155018   3.488   7.935   4.352  0.0490 -0.6159  0.9723
17859SOL    HW255019   3.387   7.994   4.256 -0.6099 -0.4791  1.7377
17860SOL     OW55020   2.333   4.244   7.867 -0.0202 -1.2230  0.4123
17860SOL    HW155021   2.417   4.252   7.821  0.3651 -1.7107  1.0100
17860SOL    HW255022   2.297   4.160   7.835 -1.7414  0.3396 -2.1433
17861SOL     OW55023   6.651   0.762   6.483 -0.1719  0.2563  0.7072
17861SOL    HW155024   6.580   0.797   6.428 -0.3579 -2.4225 -0.9206
17861SOL    HW255025   6.726   0.818   6.462 -0.8087  0.6516 -0.6742
17862SOL     OW55026   3.533   7.948   0.436  0.5522  0.7434  0.0385
17862SOL    HW155027   3.519   7.855   0.414  0.2036  0.7922  0.0471
17862SOL    HW255028   3.627   7.961   0.427  0.3298  1.0372 -2.5161
17863SOL     OW55029   1.659   6.184   2.562 -0.7627  0.1578 -0.0289
17863SOL    HW155030   1.620   6.097   2.565  1.1647 -0.7228  1.5316
17863SOL    HW255031   1.595   6.240   2.606 -1.5891 -0.6342 -0.1916
17864SOL     OW55032   1.150   6.595   8.235  0.1566  0.0411  0.2652
17864SOL    HW155033   1.065   6.614   8.195  0.4413  0.3207 -0.2168
17864SOL    HW255034   1.129   6.572   8.326 -0.3208  1.3609  0.5148
17865SOL     OW55035   7.407   4.749   4.219  0.3959  0.7843  0.7245
17865SOL    HW155036   7.317   4.742   4.249 -0.4269  0.1114 -1.6271
17865SOL    HW255037   7.410   4.833   4.173  0.9001  0.6951  0.5879
17866SOL     OW55038   0.334   3.056   2.346  0.2825  0.6721  0.2455
17866SOL    HW155039   0.423   3.059   2.379  0.2589 -0.1201  0.3831
17866SOL    HW255040   0.337   2.996   2.272 -0.4318 -0.5658  1.1943
17867SOL     OW55041   6.610   6.435   4.571 -0.0137  0.0117 -0.6714
17867SOL    HW155042   6.674   6.454   4.638  0.0718  0.0878 -0.7738
17867SOL    HW255043   6.526   6.457   4.611 -0.2250 -2.3309  0.3137
17868SOL     OW55044   4.549   1.268   9.397  0.2668 -0.0118  0.5911
17868SOL    HW155045   4.486   1.338   9.414  0.6540  0.8143 -1.1858
17868SOL    HW255046   4.634   1.313   9.392  0.3984 -0.4255 -1.5882
17869SOL     OW55047   4.429   2.459   0.212 -0.2696  0.3866  0.4449
17869SOL    HW155048   4.403   2.397   0.280  0.4001 -1.0628 -0.5800
17869SOL    HW255049   4.476   2.528   0.259  0.6436 -0.8540  1.3933
17870SOL     OW55050   7.055   3.879   4.966  0.1325 -0.3753 -0.5539
17870SOL    HW155051   7.010   3.894   4.883  1.3961 -1.2885 -1.4394
17870SOL    HW255052   7.065   3.784   4.972  1.3802 -0.2410 -0.1035
17871SOL     OW55053   7.053   6.224   2.585 -0.0290 -0.0305 -0.2492
17871SOL    HW155054   7.135   6.213   2.632 -0.7328 -0.5609  0.8814
17871SOL    HW255055   7.013   6.303   2.622 -0.6292 -0.5004  0.1160
17872SOL     OW55056   6.919   7.720   8.996 -0.5121 -0.3083 -0.5738
17872SOL    HW155057   6.920   7.816   8.999  2.2586 -0.2729  0.2144
17872SOL    HW255058   6.978   7.693   9.066  0.9371 -2.4817 -2.4677
17873SOL     OW55059   0.037   6.969   6.679 -0.0272  0.1192  0.1010
17873SOL    HW155060  -0.008   7.053   6.669 -1.2132 -0.5708 -0.6780
17873SOL    HW255061   0.077   6.953   6.593  1.3038  0.4669  0.6276
17874SOL     OW55062   2.383   4.338   8.140 -0.2596  0.2007 -0.5139
17874SOL    HW155063   2.461   4.366   8.093  0.3642 -0.1118  0.2979
17874SOL    HW255064   2.338   4.279   8.079  0.0901  0.4503 -1.0214
17875SOL     OW55065   6.740   5.631   4.091 -0.1322 -0.1491  0.5277
17875SOL    HW155066   6.758   5.714   4.136  0.8511  0.9861 -1.8229
17875SOL    HW255067   6.812   5.574   4.117  2.1327  1.4500 -1.7537
17876SOL     OW55068   1.884   6.897   2.415 -0.6786  0.2805 -0.2885
17876SOL    HW155069   1.871   6.805   2.389 -1.5966  0.4431 -0.4609
17876SOL    HW255070   1.900   6.893   2.509 -0.4787 -0.0776 -0.3351
17877SOL     OW55071   5.928   2.679   1.986 -0.7765 -0.0387  0.3732
17877SOL    HW155072   5.932   2.613   1.917  1.2229  0.0736  0.3351
17877SOL    HW255073   6.016   2.681   2.023 -0.6348  2.8923  0.1198
17878SOL     OW55074   5.302   5.179  12.325  0.3380 -0.1659 -0.2676
17878SOL    HW155075   5.242   5.107  12.308  0.4648 -0.2907 -0.1829
17878SOL    HW255076   5.337   5.203  12.239  0.1751 -0.0983 -0.3157
17879SOL     OW55077   6.244   1.560   2.697  1.1556  0.4013  0.2043
17879SOL    HW155078   6.228   1.647   2.661  1.5711  0.4421  0.1198
17879SOL    HW255079   6.335   1.563   2.727  1.0231  0.1541  0.6455
17880SOL     OW55080   0.610   4.131   0.180  0.2868 -0.3785 -0.2324
17880SOL    HW155081   0.637   4.222   0.191  0.2913 -0.0007 -2.7382
17880SOL    HW255082   0.516   4.135   0.165 -0.3713 -1.1821  3.0575
17881SOL     OW55083   3.130   6.244   6.614 -0.5193 -0.2127 -0.0123
17881SOL    HW155084   3.167   6.182   6.677 -2.5402 -1.5693 -0.0744
17881SOL    HW255085   3.184   6.234   6.536  0.4867 -0.3337  0.6839
17882SOL     OW55086   6.558   4.191   7.719 -0.2854  0.3751 -0.3892
17882SOL    HW155087   6.512   4.273   7.735 -0.9464 -0.2602  1.1272
17882SOL    HW255088   6.510   4.126   7.770  1.6711 -0.5056  0.4237
17883SOL     OW55089   6.813   5.141   3.111  0.9081 -0.3455  0.0265
17883SOL    HW155090   6.870   5.087   3.057 -0.8904 -1.5929 -0.7124
17883SOL    HW255091   6.862   5.153   3.193  1.7023 -2.4312 -0.0936
17884SOL     OW55092   4.250   3.876   1.355  0.5904  0.5528  0.4510
17884SOL    HW155093   4.259   3.928   1.435  0.1139  1.8043 -0.2745
17884SOL    HW255094   4.319   3.908   1.298  1.4943 -0.9542  0.6523
17885SOL     OW55095   7.336   7.623   9.258  0.4613 -0.1145 -0.1460
17885SOL    HW155096   7.417   7.593   9.299  0.5099 -0.5213 -0.5340
17885SOL    HW255097   7.291   7.672   9.327  1.0596  0.1672  0.0554
17886SOL     OW55098   7.241   7.458   7.261 -0.2254 -0.4241 -0.5777
17886SOL    HW155099   7.305   7.520   7.226  0.3308 -0.3661  0.4812
17886SOL    HW255100   7.157   7.487   7.225  0.3039 -0.3735 -1.8260
17887SOL     OW55101   6.135   7.046   3.682 -0.2453 -0.3598 -0.2729
17887SOL    HW155102   6.136   7.044   3.587  0.4593 -2.0865 -0.2570
17887SOL    HW255103   6.203   7.110   3.705  0.5887 -0.9807 -0.9416
17888SOL     OW55104   3.544   6.534   5.560 -0.2203 -0.0736 -0.4444
17888SOL    HW155105   3.455   6.501   5.555 -0.1277 -0.6795  1.2816
17888SOL    HW255106   3.547   6.606   5.496 -2.0313  0.1967 -0.2752
17889SOL     OW55107   2.042   6.014   0.181 -0.4744 -0.1089 -0.1152
17889SOL    HW155108   1.967   5.963   0.150 -0.0722 -1.6954  1.3804
17889SOL    HW255109   2.014   6.049   0.265 -0.7093  2.1554 -1.0803
17890SOL     OW55110   6.955   0.701   8.365 -0.1483  0.4117  0.0813
17890SOL    HW155111   6.928   0.776   8.419  0.9235  1.3580 -0.6638
17890SOL    HW255112   7.049   0.711   8.354  0.2120 -1.6236  0.7908
17891SOL     OW55113   5.065   0.075   3.064  0.1446  0.0220 -0.6184
17891SOL    HW155114   4.972   0.096   3.051  0.0760 -0.8713 -1.7918
17891SOL    HW255115   5.105   0.158   3.091 -0.7515  0.7640 -1.4840
17892SOL     OW55116   3.531   1.665   9.974  0.5624 -0.0318 -0.3378
17892SOL    HW155117   3.547   1.752  10.011  0.9327  0.7509 -2.2159
17892SOL    HW255118   3.539   1.678   9.880 -1.7255 -1.6266 -0.8300
17893SOL     OW55119   5.092   5.525   2.815 -0.2324  0.1253 -0.7329
17893SOL    HW155120   5.130   5.534   2.902 -0.1746  3.7422 -0.9869
17893SOL    HW255121   5.078   5.431   2.804  3.8059 -0.9351  1.4011
17894SOL     OW55122   4.637   4.600  10.032 -0.2160  0.0772 -0.1876
17894SOL    HW155123   4.566   4.652  10.069 -0.5705 -0.1793 -0.4969
17894SOL    HW255124   4.593   4.529   9.985  0.2643 -0.5667  0.3163
17895SOL     OW55125   5.685   7.706   8.264  0.4147  0.2732 -0.3698
17895SOL    HW155126   5.593   7.683   8.252  0.6747 -0.6486 -0.6660
17895SOL    HW255127   5.729   7.623   8.278  0.9782  0.8378  1.4351
17896SOL     OW55128   1.925   3.348   3.297 -0.1768  0.0025  0.3343
17896SOL    HW155129   1.976   3.424   3.324 -1.6137  0.6798  1.2630
17896SOL    HW255130   1.941   3.283   3.364 -0.5250  0.2156  0.6268
17897SOL     OW55131   0.395   1.773   7.253  0.3911  0.3634 -0.3826
17897SOL    HW155132   0.469   1.835   7.249  1.4429 -0.4827  2.9573
17897SOL    HW255133   0.419   1.712   7.322 -2.3100 -1.5842 -1.0241
17898SOL     OW55134   4.403   0.937   4.600 -0.5029 -0.3578  0.2106
17898SOL    HW155135   4.416   0.852   4.642 -1.2218  1.0310  3.5070
17898SOL    HW255136   4.311   0.938   4.575 -0.5383 -0.4744  0.3334
17899SOL     OW55137   7.202   7.385   6.725 -0.3304  0.4647 -0.1456
17899SOL    HW155138   7.277   7.398   6.782  0.5567  0.4228 -1.2642
17899SOL    HW255139   7.172   7.296   6.744 -0.3372  0.6188  0.5765
17900SOL     OW55140   7.892   2.707  12.417  0.0597 -0.2074 -0.0580
17900SOL    HW155141   7.973   2.681  12.372 -0.2525  0.5704 -1.0870
17900SOL    HW255142   7.822   2.663  12.368 -0.0968 -2.1559  1.7508
17901SOL     OW55143   7.677   2.197   3.818 -0.3828 -0.2290  0.8961
17901SOL    HW155144   7.676   2.210   3.912 -2.0316  0.0761  0.8663
17901SOL    HW255145   7.680   2.285   3.781 -0.1536 -0.3296  0.6711
17902SOL     OW55146   4.489   4.298   0.305  0.3351  0.2691 -0.2206
17902SOL    HW155147   4.401   4.289   0.343  0.3554 -1.8303 -0.5771
17902SOL    HW255148   4.473   4.314   0.212  0.3370  0.6990 -0.1502
17903SOL     OW55149   1.653   4.335   6.165  0.4044  0.1376  0.3322
17903SOL    HW155150   1.730   4.281   6.149  2.1017  1.7600  2.5638
17903SOL    HW255151   1.613   4.299   6.244  0.0053  0.5315  0.3199
17904SOL     OW55152   2.211   7.120   9.826 -0.4803 -0.3158 -0.7510
17904SOL    HW155153   2.238   7.034   9.856  0.2216  0.3445  0.5779
17904SOL    HW255154   2.189   7.108   9.733  1.1657 -1.5690 -1.0032
17905SOL     OW55155   6.527   7.134   2.438  0.0549  0.1957  0.3757
17905SOL    HW155156   6.537   7.067   2.506 -0.6853 -1.4897 -1.0669
17905SOL    HW255157   6.615   7.149   2.405  0.2392 -0.0244  0.7696
17906SOL     OW55158   6.639   6.451  10.374 -0.0228  0.3716  0.2188
17906SOL    HW155159   6.626   6.418  10.285  2.5326  0.5872 -0.3321
17906SOL    HW255160   6.680   6.537  10.361  1.8693 -0.2675  1.5220
17907SOL     OW55161   1.517   5.086   6.881 -0.2029 -0.4400  0.2750
17907SOL    HW155162   1.575   5.111   6.954  0.0663  1.2009 -0.4403
17907SOL    HW255163   1.441   5.143   6.891  0.1813  0.3561 -1.1379
17908SOL     OW55164   4.500   6.338   0.475  0.1363 -0.1477 -0.5540
17908SOL    HW155165   4.497   6.434   0.478  0.7086 -0.1126 -0.9834
17908SOL    HW255166   4.531   6.312   0.562  0.7358  0.0915 -0.6950
17909SOL     OW55167   7.012   5.263   9.501  0.2307 -0.5490  0.0575
17909SOL    HW155168   7.068   5.323   9.550  1.1166 -1.0421 -0.3245
17909SOL    HW255169   7.044   5.176   9.524 -0.6063 -0.8578  0.0858
17910SOL     OW55170   1.031   4.923   2.801  0.3212  0.3762  0.0948
17910SOL    HW155171   1.112   4.949   2.846 -0.4704  0.5534  1.4738
17910SOL    HW255172   1.042   4.830   2.785  0.5485  0.2576  0.8763
17911SOL     OW55173   0.015   0.905   0.389 -0.3950 -0.1346 -0.1145
17911SOL    HW155174   0.012   0.991   0.432 -1.7618  0.5206 -1.4061
17911SOL    HW255175   0.097   0.905   0.340 -0.1813  0.2548  0.2404
17912SOL     OW55176   3.124   4.501  11.425 -0.0332 -0.4036 -0.2494
17912SOL    HW155177   3.053   4.532  11.481  1.0203 -0.6019  1.2498
17912SOL    HW255178   3.198   4.558  11.446  0.6534 -1.0867 -0.7385
17913SOL     OW55179   2.446   6.819   0.464 -0.4770 -0.3890 -0.4253
17913SOL    HW155180   2.514   6.856   0.408  1.5925 -0.3422  1.8902
17913SOL    HW255181   2.424   6.890   0.524 -0.8051 -1.1258  0.3473
17914SOL     OW55182   5.984   3.620  11.136  0.0556  0.0309 -0.6026
17914SOL    HW155183   5.910   3.653  11.086  0.7090 -0.1906 -1.7352
17914SOL    HW255184   5.945   3.589  11.218 -0.8968  1.3125 -0.5297
17915SOL     OW55185   0.340   3.997   1.126  0.5773 -0.1741  0.2969
17915SOL    HW155186   0.413   4.011   1.187  0.3073 -2.2491  1.1974
17915SOL    HW255187   0.278   4.067   1.146  0.8672 -0.3241  1.8504
17916SOL     OW55188   6.372   2.193   8.018 -0.7283 -1.1726 -0.1440
17916SOL    HW155189   6.343   2.232   8.101  2.7050  1.7796 -0.0801
17916SOL    HW255190   6.454   2.148   8.040 -0.1811 -1.0272 -1.7589
17917SOL     OW55191   5.204   1.465   5.631 -0.4043 -0.2002 -0.0553
17917SOL    HW155192   5.193   1.542   5.575 -2.5897 -0.3271  0.1246
17917SOL    HW255193   5.180   1.494   5.719  2.4620 -0.1525  0.8017
17918SOL     OW55194   2.304   2.995   8.947 -0.1384  0.1738 -0.0521
17918SOL    HW155195   2.302   2.944   8.866  0.6304  1.6562 -1.0611
17918SOL    HW255196   2.219   3.038   8.951 -0.2854 -0.1294  0.0845
17919SOL     OW55197   1.863   7.151   9.400  0.3428 -0.3688  0.3501
17919SOL    HW155198   1.886   7.069   9.356  1.2915 -0.0427  0.2214
17919SOL    HW255199   1.799   7.125   9.466  1.3278 -1.3615  0.9395
17920SOL     OW55200   6.401   5.101  12.249  0.6889 -0.1445  0.0495
17920SOL    HW155201   6.409   5.045  12.326  0.9540 -0.3812 -0.1480
17920SOL    HW255202   6.307   5.101  12.229  0.6212 -0.1004  0.3544
17921SOL     OW55203   5.703   4.663   0.137 -0.2577  0.3474  0.2800
17921SOL    HW155204   5.797   4.643   0.138 -0.3494 -0.1783 -0.6991
17921SOL    HW255205   5.668   4.619   0.215  0.5777  2.0462  1.6893
17922SOL     OW55206   0.768   5.720   1.410  0.3474  0.5023  0.2799
17922SOL    HW155207   0.744   5.794   1.465  0.8516  1.8094 -1.2071
17922SOL    HW255208   0.701   5.718   1.341  1.9984  1.5158 -1.4365
17923SOL     OW55209   7.566   7.928   5.676 -0.2443 -0.2364 -0.1614
17923SOL    HW155210   7.631   7.858   5.682  0.6447  0.6903  3.4135
17923SOL    HW255211   7.616   8.008   5.668 -0.9653  0.3732  1.0905
17924SOL     OW55212   4.618   0.596   0.194 -0.1351 -0.2629 -0.7852
17924SOL    HW155213   4.656   0.508   0.197 -0.9751 -0.6279 -0.7372
17924SOL    HW255214   4.526   0.583   0.216 -0.2904  0.6156 -0.9051
17925SOL     OW55215   2.387   4.344   0.873  0.1922  0.0262 -0.2821
17925SOL    HW155216   2.425   4.257   0.859 -1.9446 -0.6273 -2.8407
17925SOL    HW255217   2.343   4.338   0.957 -0.4355 -1.6051 -0.6924
17926SOL     OW55218   5.956   3.140   1.277  0.5605  0.4665  0.4946
17926SOL    HW155219   5.961   3.154   1.183  1.4621  1.3192  0.6537
17926SOL    HW255220   6.018   3.070   1.294 -0.6008 -0.6583  0.3027
17927SOL     OW55221   2.642   6.113   1.889 -0.7646  0.0363 -0.0430
17927SOL    HW155222   2.631   6.185   1.950 -1.1993 -0.9882  1.1294
17927SOL    HW255223   2.645   6.154   1.803 -0.8016  1.4523  0.6148
17928SOL     OW55224   7.242   6.557  10.761 -0.0486 -0.1405 -0.4592
17928SOL    HW155225   7.165   6.612  10.752  0.5089  0.9428  1.0865
17928SOL    HW255226   7.292   6.572  10.680  0.1159  1.7007 -0.0565
17929SOL     OW55227   2.477   4.072   8.272 -0.5274  0.5315  0.3029
17929SOL    HW155228   2.536   4.126   8.325 -1.9090 -0.9157  3.5623
17929SOL    HW255229   2.400   4.127   8.259  0.4421  1.4928 -1.7692
17930SOL     OW55230   1.547   4.483   5.953 -0.3789  0.1393  0.6776
17930SOL    HW155231   1.602   4.427   6.007  1.6483  0.9035 -0.5089
17930SOL    HW255232   1.504   4.423   5.893  1.6408 -0.2466 -0.4703
17931SOL     OW55233   7.325   7.187   4.993 -0.1914 -0.3429  0.4258
17931SOL    HW155234   7.324   7.188   5.089 -1.9879  1.0979  0.4339
17931SOL    HW255235   7.301   7.097   4.970  1.0636 -0.9265  1.2985
17932SOL     OW55236   4.347   1.793   9.519 -0.1164 -0.5150 -0.0170
17932SOL    HW155237   4.343   1.759   9.608 -1.7978 -0.4631 -0.0303
17932SOL    HW255238   4.426   1.847   9.517  0.8499 -1.8289  0.9363
17933SOL     OW55239   4.209   3.189  12.332  0.5095 -0.8571  0.2562
17933SOL    HW155240   4.174   3.145  12.254 -0.0342 -0.2637  0.1549
17933SOL    HW255241   4.271   3.254  12.297  1.2540 -1.4773  0.4004
17934SOL     OW55242   7.649   4.157   7.639 -0.2520  0.2377 -0.5729
17934SOL    HW155243   7.573   4.142   7.583  0.0356 -0.8602 -0.6890
17934SOL    HW255244   7.724   4.151   7.580  0.0068 -0.1457 -0.2112
17935SOL     OW55245   4.602   6.516   6.420  0.1429  0.0376 -0.0178
17935SOL    HW155246   4.606   6.420   6.413 -0.2666 -0.1065  1.4587
17935SOL    HW255247   4.563   6.532   6.505 -0.2176  1.5355 -0.4460
17936SOL     OW55248   4.925   0.861   6.258 -0.6467  0.4928 -0.4468
17936SOL    HW155249   5.005   0.813   6.278 -1.4549 -0.3766  0.8754
17936SOL    HW255250   4.924   0.867   6.162 -0.7411 -2.6317 -0.7400
17937SOL     OW55251   4.635   5.033  11.918 -0.2210  0.5308  0.0626
17937SOL    HW155252   4.661   4.948  11.954  0.1572  0.8187  0.4788
17937SOL    HW255253   4.584   5.074  11.988  0.7599  1.2126  0.4001
17938SOL     OW55254   4.352   0.896   7.503 -0.3061 -1.0286  0.9136
17938SOL    HW155255   4.423   0.858   7.452  0.3405 -1.5756  2.1844
17938SOL    HW255256   4.329   0.829   7.567 -1.4463 -0.5574  1.0336
17939SOL     OW55257   4.912   0.406   9.472 -0.2957  0.0578  0.0083
17939SOL    HW155258   4.904   0.482   9.530  0.0948  0.8880 -1.0034
17939SOL    HW255259   4.830   0.406   9.422  1.0089  1.8528 -2.3548
17940SOL     OW55260   1.272   5.608   8.402 -0.0510  1.3321  0.1096
17940SOL    HW155261   1.184   5.583   8.373 -0.2124  1.7418  0.2337
17940SOL    HW255262   1.300   5.536   8.458 -0.2184  1.0937 -0.1141
17941SOL     OW55263   7.776   3.461   4.229  0.2908 -0.0662 -0.1067
17941SOL    HW155264   7.721   3.491   4.157  0.2539  0.2996  0.0697
17941SOL    HW255265   7.866   3.472   4.196  0.3481  2.0048  0.6040
17942SOL     OW55266   0.562   0.411   8.868  0.3673  0.4998  0.4067
17942SOL    HW155267   0.633   0.350   8.845  0.4967  0.0893  1.7751
17942SOL    HW255268   0.482   0.365   8.841  0.4402 -0.4674  1.7219
17943SOL     OW55269   6.327   0.068   9.386 -0.4912  0.5059  0.0001
17943SOL    HW155270   6.351  -0.012   9.340 -0.9246 -0.5307  1.5175
17943SOL    HW255271   6.232   0.061   9.399 -0.7329  1.8118 -0.8247
17944SOL     OW55272   3.755   4.048   7.617  0.0488  0.5391  0.3571
17944SOL    HW155273   3.760   4.085   7.529 -2.0966 -1.6220 -0.7695
17944SOL    HW255274   3.710   4.115   7.669  0.6782  1.5221 -0.3219
17945SOL     OW55275   4.848   0.548   5.873  0.2197  0.0833  0.1674
17945SOL    HW155276   4.833   0.544   5.968  0.5550 -1.3270  0.1854
17945SOL    HW255277   4.810   0.467   5.839  0.4523  0.3898 -0.8626
17946SOL     OW55278   5.491   2.254   6.110  0.0859 -0.2071 -0.2023
17946SOL    HW155279   5.563   2.316   6.125 -0.8559  0.4488  2.1195
17946SOL    HW255280   5.473   2.260   6.016  1.9513  0.8232 -0.5542
17947SOL     OW55281   0.782   4.875   9.487  0.4046 -0.8543  0.2299
17947SOL    HW155282   0.783   4.916   9.573  0.4046  0.2742 -0.2975
17947SOL    HW255283   0.788   4.947   9.425 -0.7574 -1.5519 -0.7517
17948SOL     OW55284   7.013   4.199   6.104  0.1175  0.8194  0.0430
17948SOL    HW155285   7.030   4.168   6.193 -0.2681  1.2914  0.2869
17948SOL    HW255286   7.098   4.229   6.072  0.3830  0.0562  0.0129
17949SOL     OW55287   4.714   6.860   8.363 -0.3585 -0.1118  0.0095
17949SOL    HW155288   4.696   6.890   8.274  0.5119 -0.8344 -0.4184
17949SOL    HW255289   4.798   6.900   8.385 -1.0863  0.9959  0.9584
17950SOL     OW55290   5.391   7.069   5.782  0.5222 -1.0104 -0.3111
17950SOL    HW155291   5.481   7.092   5.804  0.2971 -0.0027 -0.4097
17950SOL    HW255292   5.353   7.148   5.745  0.2325 -2.0447 -2.3560
17951SOL     OW55293   3.904   6.926   9.583 -0.2187  0.5398  0.2632
17951SOL    HW155294   3.913   6.843   9.631 -0.6552  0.7245  0.6684
17951SOL    HW255295   3.897   6.899   9.491  1.6697  0.2390  0.1720
17952SOL     OW55296   3.383   5.230  10.676 -0.0707  0.3250 -0.0062
17952SOL    HW155297   3.459   5.178  10.703  0.3861  1.0528  0.1507
17952SOL    HW255298   3.320   5.219  10.746  0.2632  0.4637  0.3224
17953SOL     OW55299   1.720   4.380   5.436  0.3596  0.1741  0.5710
17953SOL    HW155300   1.815   4.374   5.436  0.3364 -0.9921  1.7137
17953SOL    HW255301   1.692   4.322   5.365  0.4970  0.1205  0.5605
17954SOL     OW55302   0.996   7.701   7.664  0.5212 -0.4863 -0.8533
17954SOL    HW155303   0.990   7.613   7.703 -0.9840 -0.9505 -2.0277
17954SOL    HW255304   0.910   7.740   7.680  1.2526  0.8997 -0.1412
17955SOL     OW55305   5.793   7.160   4.965 -0.0589 -0.2122 -0.0921
17955SOL    HW155306   5.752   7.133   5.047  0.2076  1.0175  0.4600
17955SOL    HW255307   5.721   7.157   4.901 -0.4553 -0.3878  0.3519
17956SOL     OW55308   0.041   2.579  11.650  0.0663  0.0450 -0.1879
17956SOL    HW155309  -0.030   2.515  11.660 -0.2010  0.1054 -1.5749
17956SOL    HW255310   0.003   2.661  11.683 -1.3529  0.5998 -2.9585
17957SOL     OW55311   7.149   3.203   9.341  0.2939  0.1315  0.0628
17957SOL    HW155312   7.178   3.269   9.278  4.2048  1.6880  3.0779
17957SOL    HW255313   7.099   3.252   9.405 -0.8516 -0.8277 -0.0577
17958SOL     OW55314   1.045   4.686   6.484 -0.0954  0.4249 -0.4011
17958SOL    HW155315   1.088   4.696   6.399 -0.8312  0.6158 -0.7634
17958SOL    HW255316   1.102   4.627   6.533  0.8288  1.0732 -0.6810
17959SOL     OW55317   1.331   5.827   8.213  0.1117 -0.0387 -0.3512
17959SOL    HW155318   1.344   5.779   8.294  0.9184  0.9555  0.1338
17959SOL    HW255319   1.253   5.880   8.228  1.6652  2.0820  0.7934
17960SOL     OW55320   1.256   0.448   7.763 -0.3722 -0.1510  0.8913
17960SOL    HW155321   1.217   0.529   7.796  2.2633  1.3844  0.4616
17960SOL    HW255322   1.236   0.448   7.670  0.8224  0.7645  0.6228
17961SOL     OW55323   5.886   2.025   0.662  0.1729  0.3827 -0.1464
17961SOL    HW155324   5.885   1.935   0.630  0.9840  0.8547 -1.5481
17961SOL    HW255325   5.936   2.020   0.744  1.4863 -0.2085 -0.9641
17962SOL     OW55326   1.216   5.645   7.453  0.1535 -0.2545 -0.1580
17962SOL    HW155327   1.288   5.584   7.436 -0.9151 -2.1164  1.6589
17962SOL    HW255328   1.202   5.641   7.547 -1.2226  1.3847 -0.2470
17963SOL     OW55329   5.141   3.477   3.383 -0.2109 -0.0872 -0.0551
17963SOL    HW155330   5.214   3.432   3.340  0.9139  1.5395  0.0435
17963SOL    HW255331   5.084   3.407   3.413  0.6432 -1.3689 -1.2970
17964SOL     OW55332   5.630   1.155   0.771 -0.3567 -0.1112  0.2045
17964SOL    HW155333   5.659   1.230   0.823  0.3462 -0.0684 -0.2379
17964SOL    HW255334   5.652   1.178   0.681 -0.7376 -0.5719 -0.0105
17965SOL     OW55335   5.386   4.660   4.498 -0.0241  0.6429  0.3839
17965SOL    HW155336   5.476   4.641   4.524 -0.3831 -1.5350  0.2605
17965SOL    HW255337   5.394   4.708   4.416  1.0729 -1.1132 -0.6155
17966SOL     OW55338   4.347   7.732   5.276  0.1200 -0.2044  0.2319
17966SOL    HW155339   4.420   7.791   5.295 -0.3648  0.2563  0.7035
17966SOL    HW255340   4.346   7.724   5.181  0.2933  0.4193  0.1747
17967SOL     OW55341   2.723   6.380   2.764 -0.7384 -0.8677  0.0431
17967SOL    HW155342   2.744   6.461   2.717 -0.9027 -0.8294  0.0347
17967SOL    HW255343   2.795   6.320   2.743 -0.2756 -0.5054  0.5857
17968SOL     OW55344   1.833   6.040  11.770  0.2531 -0.0356  0.8996
17968SOL    HW155345   1.832   5.947  11.792  0.4295 -0.0713  0.7656
17968SOL    HW255346   1.752   6.054  11.721  1.3330 -0.6473 -1.1670
17969SOL     OW55347   6.244   1.864  12.363 -0.2117  0.2631  0.5845
17969SOL    HW155348   6.172   1.804  12.384 -1.2848 -0.2604 -3.5821
17969SOL    HW255349   6.201   1.950  12.353  0.2162  0.4903  0.6884
17970SOL     OW55350   4.843   1.682   9.765 -0.2587 -0.1726  0.6902
17970SOL    HW155351   4.845   1.717   9.854 -1.2010 -0.8759  1.0115
17970SOL    HW255352   4.917   1.622   9.760  1.5606  1.9752  0.0423
17971SOL     OW55353   4.304   2.798   4.259  0.0871 -0.2127 -0.1407
17971SOL    HW155354   4.392   2.826   4.232  0.2827 -0.3194  0.3774
17971SOL    HW255355   4.274   2.868   4.317  0.4501 -0.9115  0.9063
17972SOL     OW55356   6.978   4.034  10.055  0.6840 -0.2544 -0.2025
17972SOL    HW155357   6.981   3.971   9.984  0.1360  0.1574 -0.5996
17972SOL    HW255358   6.961   4.118  10.013 -0.9923 -0.1979  0.4980
17973SOL     OW55359   1.836   6.725   1.656 -0.2287  0.0157  0.0047
17973SOL    HW155360   1.883   6.681   1.726 -0.7524 -0.5209  0.0227
17973SOL    HW255361   1.866   6.682   1.576 -1.8364 -1.4399  0.1204
17974SOL     OW55362   4.449   2.101   0.802  0.0071 -0.1674 -0.3184
17974SOL    HW155363   4.465   2.009   0.821 -0.5831 -0.5684 -1.6360
17974SOL    HW255364   4.381   2.100   0.735 -0.4492  1.2524  0.0780
17975SOL     OW55365   4.135   7.195   0.974 -0.2165  0.3293  0.2215
17975SOL    HW155366   4.203   7.141   0.933 -3.1679 -3.3283 -0.4165
17975SOL    HW255367   4.132   7.164   1.065 -1.7277 -0.5081 -0.0712
17976SOL     OW55368   3.536   6.773   5.005 -0.2341  0.2284  0.4691
17976SOL    HW155369   3.605   6.796   4.943  0.3062  2.0396  1.6714
17976SOL    HW255370   3.487   6.703   4.961  1.8952 -0.6250 -0.7198
17977SOL     OW55371   6.406   7.075   6.532 -0.1192  0.1776 -0.7049
17977SOL    HW155372   6.389   7.164   6.500  1.3790  1.2305  1.1886
17977SOL    HW255373   6.483   7.046   6.483 -1.2371 -0.5896 -2.1077
17978SOL     OW55374   2.094   4.011   3.739 -0.1623  0.1907 -0.2060
17978SOL    HW155375   2.054   3.934   3.781 -0.7044 -1.6370 -3.7347
17978SOL    HW255376   2.031   4.038   3.672  2.1983  0.4775 -2.4700
17979SOL     OW55377   2.584   6.963   2.956 -0.4579 -0.2960 -0.1603
17979SOL    HW155378   2.578   6.869   2.969  0.1704 -0.2677  0.3792
17979SOL    HW255379   2.599   6.974   2.862 -0.9755 -0.7099 -0.2920
17980SOL     OW55380   5.985   5.972   6.905 -0.0124  0.1740  0.1133
17980SOL    HW155381   6.002   5.970   6.811 -0.2108 -1.2343  0.0971
17980SOL    HW255382   6.053   6.031   6.939  2.0656 -1.6885 -0.5362
17981SOL     OW55383   1.965   5.065   8.808 -0.3272  0.3327  0.0268
17981SOL    HW155384   2.040   5.064   8.748 -0.1945 -1.0704  0.1583
17981SOL    HW255385   2.000   5.027   8.889 -0.3394  2.7463  1.2542
17982SOL     OW55386   0.858   0.158   4.933 -0.7149  0.3002 -0.2422
17982SOL    HW155387   0.876   0.242   4.892 -1.8459  0.5083 -0.3514
17982SOL    HW255388   0.766   0.141   4.914 -0.4075 -1.1541 -0.5539
17983SOL     OW55389   0.890   0.741   1.563 -0.0110 -0.2999 -0.3020
17983SOL    HW155390   0.893   0.729   1.468 -1.7108  0.6448 -0.5103
17983SOL    HW255391   0.977   0.716   1.592  2.2647  3.7334 -2.6244
17984SOL     OW55392   2.996   2.496   9.707 -0.0334  0.0265  0.2426
17984SOL    HW155393   3.064   2.431   9.687  0.8471  1.4613 -1.8704
17984SOL    HW255394   2.920   2.445   9.732  0.2788 -1.9525 -2.3984
17985SOL     OW55395   4.527   0.610   4.601  0.3944  0.3738 -0.1192
17985SOL    HW155396   4.528   0.515   4.612 -0.9742  0.4982  1.6253
17985SOL    HW255397   4.495   0.624   4.512  2.2325 -0.7771 -1.0031
17986SOL     OW55398   5.361   0.559   3.341  0.2006 -0.2513  1.0604
17986SOL    HW155399   5.316   0.491   3.291  1.1681 -0.6869  0.7598
17986SOL    HW255400   5.426   0.595   3.280  0.8224 -0.2082  1.7292
17987SOL     OW55401   7.910   1.924  12.370 -0.4101 -0.3256 -0.6967
17987SOL    HW155402   7.923   1.873  12.449 -1.2462  0.9147  0.2784
17987SOL    HW255403   7.833   1.978  12.388  0.3015  1.1226 -1.7321
17988SOL     OW55404   0.443   5.197   7.681  0.1021 -0.7463  0.2861
17988SOL    HW155405   0.515   5.208   7.619  0.7575  0.9135  1.2483
17988SOL    HW255406   0.485   5.207   7.767 -1.2651  0.4329  0.8657
17989SOL     OW55407   0.403   0.911   6.077 -0.3153  0.1918  0.1536
17989SOL    HW155408   0.382   0.820   6.096  3.0792 -0.5997  0.8547
17989SOL    HW255409   0.380   0.958   6.157  2.0183 -0.9198  1.5813
17990SOL     OW55410   0.816   5.444  11.559 -0.2534 -0.3299 -0.2012
17990SOL    HW155411   0.789   5.422  11.470  1.0720 -0.8130 -0.5139
17990SOL    HW255412   0.771   5.381  11.614  0.1440 -1.0529 -0.6866
17991SOL     OW55413   2.818   3.657   3.001 -0.2946 -0.1156 -0.5211
17991SOL    HW155414   2.818   3.743   2.959 -0.7470  0.6203  0.9482
17991SOL    HW255415   2.767   3.668   3.081  0.4843 -1.4879  0.2135
17992SOL     OW55416   5.444   7.195   9.908 -0.1291 -0.9677 -0.5917
17992SOL    HW155417   5.496   7.125   9.868  0.8678  0.1648 -1.3459
17992SOL    HW255418   5.407   7.243   9.834 -0.7524 -0.6553 -0.0851
17993SOL     OW55419   0.331   2.511   8.154 -1.0616  0.4380 -0.5350
17993SOL    HW155420   0.264   2.469   8.207 -1.4588  2.7756  0.9602
17993SOL    HW255421   0.301   2.602   8.144 -0.0120  0.6016 -3.1466
17994SOL     OW55422   3.331   6.930   1.654 -0.3908  0.2771  0.2615
17994SOL    HW155423   3.336   6.994   1.583 -1.5579 -0.6780 -0.7222
17994SOL    HW255424   3.242   6.939   1.689 -0.9089 -1.4123 -0.5253
17995SOL     OW55425   6.314   7.250   9.224  1.2308  0.2108 -0.0370
17995SOL    HW155426   6.348   7.325   9.273 -0.3013  0.5081  0.6354
17995SOL    HW255427   6.337   7.268   9.133 -0.2400  2.1688 -0.0726
17996SOL     OW55428   6.195   6.761  11.436 -0.0702  0.6602 -0.8308
17996SOL    HW155429   6.170   6.766  11.344 -0.8950  0.9206 -0.6067
17996SOL    HW255430   6.115   6.784  11.484  0.4918  1.0862 -0.0606
17997SOL     OW55431   4.559   7.876   5.314 -0.6804 -0.0038  0.9354
17997SOL    HW155432   4.631   7.935   5.290  0.3025 -1.3562  0.4558
17997SOL    HW255433   4.554   7.883   5.410  2.6236 -2.5642  1.4899
17998SOL     OW55434   4.378   5.049   0.229  0.0276 -0.3110 -0.2964
17998SOL    HW155435   4.389   5.121   0.167  4.0006 -1.7454 -1.5650
17998SOL    HW255436   4.384   5.091   0.315  1.5291  1.0281 -1.0004
17999SOL     OW55437   6.284   4.911   7.562  0.2032  0.2973  0.5545
17999SOL    HW155438   6.219   4.867   7.618 -0.6989 -0.3055 -0.9176
17999SOL    HW255439   6.256   5.003   7.562  1.3447  0.7050  2.5991
18000SOL     OW55440   6.293   4.660   6.182  0.5132  0.4568 -0.3201
18000SOL    HW155441   6.304   4.591   6.247 -2.1834 -0.3140 -0.5648
18000SOL    HW255442   6.376   4.661   6.134  2.2339  0.4086  2.4434
18001SOL     OW55443   3.873   0.031   1.031 -0.3253  0.1852 -0.4285
18001SOL    HW155444   3.945   0.088   1.055 -0.1175  0.2464 -1.1537
18001SOL    HW255445   3.847  -0.012   1.112  0.3643  0.3442 -0.1190
18002SOL     OW55446   4.119   0.004  10.273  0.3092  0.1723  1.0153
18002SOL    HW155447   4.070  -0.035  10.201  0.2774 -1.1409  1.7262
18002SOL    HW255448   4.205   0.023  10.236  0.3067 -0.5286  0.6484
18003SOL     OW55449   0.591   2.426   0.061  0.4137  0.1646  0.1258
18003SOL    HW155450   0.566   2.397  -0.026  0.1400  1.3528 -0.2070
18003SOL    HW255451   0.646   2.503   0.046 -2.4889  2.5739  1.0185
18004SOL     OW55452   4.360   3.807   2.759 -0.2149  0.4656  0.5586
18004SOL    HW155453   4.432   3.754   2.794  0.2240  0.3782 -0.4555
18004SOL    HW255454   4.325   3.755   2.687 -2.6033 -0.4179  2.2476
18005SOL     OW55455   6.847   5.101   5.949  0.0308 -0.0465  0.2270
18005SOL    HW155456   6.846   5.185   5.995 -0.0548 -0.1433  0.4031
18005SOL    HW255457   6.796   5.116   5.869  1.4766  0.5566 -0.6091
18006SOL     OW55458   4.027   6.730  11.988  0.6673  0.2150 -0.4325
18006SOL    HW155459   4.004   6.676  11.912 -0.8255 -0.4419  0.4649
18006SOL    HW255460   4.116   6.702  12.011  0.5800 -0.5967 -1.0438
18007SOL     OW55461   5.616   5.424   0.277  0.3654  0.2054  0.2239
18007SOL    HW155462   5.590   5.510   0.311 -0.2094  1.2069 -2.4981
18007SOL    HW255463   5.535   5.373   0.277  0.0567  0.6604 -0.7920
18008SOL     OW55464   6.356   0.771   1.676 -0.0950  0.2042 -0.0516
18008SOL    HW155465   6.417   0.811   1.615 -0.6103  2.3177  0.7383
18008SOL    HW255466   6.339   0.684   1.639  1.2543  0.5927 -1.7259
18009SOL     OW55467   7.605   4.670   4.638 -0.4156  0.2826  0.2101
18009SOL    HW155468   7.574   4.733   4.703 -0.2994  0.4079  0.1426
18009SOL    HW255469   7.637   4.723   4.566  0.1482  0.1540  0.3635
18010SOL     OW55470   7.343   5.388   4.294 -0.6067  0.1888 -0.1968
18010SOL    HW155471   7.349   5.458   4.229 -0.4660 -0.7554 -1.2464
18010SOL    HW255472   7.252   5.357   4.286 -0.8119  0.5696  0.6096
18011SOL     OW55473   1.269   6.461  12.397  0.0227  0.6509  0.0953
18011SOL    HW155474   1.306   6.537  12.442  2.0588 -0.1370 -0.1284
18011SOL    HW255475   1.219   6.415  12.464  1.1844  0.6681  1.0124
18012SOL     OW55476   6.448   2.228   2.383 -0.0053  0.4426 -0.0092
18012SOL    HW155477   6.532   2.232   2.338 -0.8408  1.4622 -1.5716
18012SOL    HW255478   6.385   2.202   2.315 -1.3326  2.1816  0.4622
18013SOL     OW55479   1.130   1.736   8.184 -0.1001  0.5650 -0.8168
18013SOL    HW155480   1.185   1.780   8.120  0.0567 -0.0204 -1.0926
18013SOL    HW255481   1.161   1.646   8.186  1.6976  1.1059  2.0453
18014SOL     OW55482   7.063   7.943   2.610  0.6031  0.5981 -0.3506
18014SOL    HW155483   6.970   7.957   2.630  0.8912  1.2896  0.5705
18014SOL    HW255484   7.106   7.942   2.695  1.3067 -0.9340 -0.6890
18015SOL     OW55485   6.506   1.043  10.081 -0.5809  0.6273  0.1792
18015SOL    HW155486   6.447   1.117  10.066  0.2159  1.2128 -0.0907
18015SOL    HW255487   6.588   1.083  10.111  0.2906 -0.0393 -1.2017
18016SOL     OW55488   1.031   5.539   6.225  0.0237  0.3918 -0.6852
18016SOL    HW155489   0.983   5.482   6.285  0.7742  0.6138  0.1515
18016SOL    HW255490   0.970   5.610   6.204  0.4941  1.6613  1.7950
18017SOL     OW55491   2.898   0.382   5.577  0.4595 -0.0536 -0.2278
18017SOL    HW155492   2.976   0.330   5.557  0.1472 -0.5870 -0.0860
18017SOL    HW255493   2.886   0.371   5.671  1.3540  1.6457  0.1198
18018SOL     OW55494   6.737   5.467   9.851 -0.2768 -0.1077 -0.5571
18018SOL    HW155495   6.826   5.433   9.853  0.0909  0.8050 -0.9479
18018SOL    HW255496   6.682   5.390   9.866  0.6046 -0.4636  1.0427
18019SOL     OW55497   3.118   3.625  10.906  0.5610  0.3390 -0.3370
18019SOL    HW155498   3.070   3.577  10.973  0.4251  0.0452 -0.6413
18019SOL    HW255499   3.059   3.697  10.882  0.4119  0.1759 -0.4675
18020SOL     OW55500   7.027   1.370   9.713 -0.1082  0.2549  0.1214
18020SOL    HW155501   6.984   1.366   9.627  0.5580 -0.4093 -0.1880
18020SOL    HW255502   6.969   1.424   9.766 -0.8763  0.1122 -0.5537
18021SOL     OW55503   6.234   4.296   4.754 -0.3950  0.1192  0.1838
18021SOL    HW155504   6.243   4.338   4.668 -0.3856  2.4219  1.2135
18021SOL    HW255505   6.147   4.256   4.752 -1.9592  3.1511  0.1968
18022SOL     OW55506   5.018   7.880   0.176 -0.6170 -0.0741  0.2959
18022SOL    HW155507   5.002   7.933   0.254  0.6500  0.7456  0.0225
18022SOL    HW255508   5.098   7.831   0.196  0.5137  1.1761 -0.9699
18023SOL     OW55509   2.343   7.429   7.470 -0.0084  0.3843 -0.0004
18023SOL    HW155510   2.315   7.492   7.537 -1.3176  0.6021 -0.7267
18023SOL    HW255511   2.271   7.427   7.408 -0.4362 -2.5394  0.4750
18024SOL     OW55512   4.963   5.568   4.357  0.6680 -0.2346  0.1753
18024SOL    HW155513   4.998   5.542   4.272 -0.5330 -1.6452  0.0850
18024SOL    HW255514   5.009   5.512   4.420  0.5375 -0.1666  0.3313
18025SOL     OW55515   3.224   1.955   0.899 -0.0354 -0.0435 -0.0535
18025SOL    HW155516   3.248   1.863   0.898 -1.3649 -0.4077 -1.0239
18025SOL    HW255517   3.144   1.958   0.951 -0.0985  0.5449 -0.1780
18026SOL     OW55518   2.764   4.252   0.542 -0.4514  0.0269  0.0557
18026SOL    HW155519   2.739   4.304   0.618  0.0790  0.5872 -0.1441
18026SOL    HW255520   2.751   4.161   0.569  0.9583  0.1558  1.2695
18027SOL     OW55521   4.875   1.229   2.816 -0.1301 -0.0113 -0.4737
18027SOL    HW155522   4.968   1.217   2.836 -0.7397 -0.1983  2.9286
18027SOL    HW255523   4.838   1.141   2.823 -0.8289  0.3225  0.1206
18028SOL     OW55524   6.134   4.995   6.571  0.1992  0.2864 -0.1398
18028SOL    HW155525   6.148   4.901   6.583  2.2274  0.3127 -1.7778
18028SOL    HW255526   6.213   5.036   6.605 -0.1016  1.2948 -0.6073
18029SOL     OW55527   3.280   4.466   6.596 -0.1052 -0.2430  0.0941
18029SOL    HW155528   3.374   4.483   6.593 -0.0921 -0.4114 -0.8345
18029SOL    HW255529   3.254   4.460   6.504 -0.4728 -3.1270  0.2864
18030SOL     OW55530   6.623   0.805   8.877  0.1816 -0.1491 -0.1998
18030SOL    HW155531   6.668   0.757   8.808 -0.0236 -1.2251  0.3905
18030SOL    HW255532   6.534   0.770   8.877  0.0217  0.2467  0.2354
18031SOL     OW55533   4.312   6.489   0.207  0.0371 -0.5851  0.0158
18031SOL    HW155534   4.315   6.503   0.302  0.1402 -1.2171  0.1124
18031SOL    HW255535   4.391   6.532   0.174 -0.5632  0.5833  0.0792
18032SOL     OW55536   5.036   3.574   1.927 -0.1073 -0.6020  0.5588
18032SOL    HW155537   4.999   3.614   2.006  0.0245 -1.2244  0.9441
18032SOL    HW255538   5.037   3.645   1.863  0.3679  0.0890  1.3046
18033SOL     OW55539   6.716   6.976  12.422 -0.5225 -0.3352  0.0257
18033SOL    HW155540   6.687   6.904  12.476 -1.8575 -0.8565 -1.3091
18033SOL    HW255541   6.744   7.044  12.484  0.3399 -1.7924  1.2972
18034SOL     OW55542   6.445   3.009   8.515 -0.6273  0.2037 -0.0659
18034SOL    HW155543   6.370   2.949   8.521  0.1490 -0.8314 -0.2919
18034SOL    HW255544   6.419   3.073   8.448 -1.3761 -0.0291 -0.0131
18035SOL     OW55545   3.315   2.647   7.271 -1.0566 -0.0351  0.7304
18035SOL    HW155546   3.281   2.736   7.280  0.9027  0.7348  0.8056
18035SOL    HW255547   3.312   2.630   7.177 -0.6438  0.4367  0.6295
18036SOL     OW55548   4.742   2.821   8.699  0.3265 -0.5129 -0.4347
18036SOL    HW155549   4.687   2.867   8.636  1.0776 -1.3016 -1.6942
18036SOL    HW255550   4.696   2.831   8.783 -0.2622  1.2617 -0.9275
18037SOL     OW55551   1.202   3.551   0.312  0.1257 -0.0545 -0.6558
18037SOL    HW155552   1.156   3.606   0.375  0.8895  1.0653 -1.0426
18037SOL    HW255553   1.133   3.506   0.263 -0.5893  1.6531 -1.2960
18038SOL     OW55554   1.459   2.623   2.142  0.3378 -0.0367 -0.3989
18038SOL    HW155555   1.546   2.662   2.146  0.6834 -0.6487 -1.4725
18038SOL    HW255556   1.431   2.635   2.051 -0.1690 -0.9573 -0.3802
18039SOL     OW55557   4.736   5.915   1.353 -0.2186 -0.0001  0.1722
18039SOL    HW155558   4.655   5.942   1.396 -0.8690 -2.7439  0.8084
18039SOL    HW255559   4.802   5.975   1.388 -1.6800  1.4192  0.6810
18040SOL     OW55560   0.867   4.469   2.090  0.1051  0.1702 -0.5097
18040SOL    HW155561   0.888   4.391   2.037  1.1795  0.0540  0.0675
18040SOL    HW255562   0.903   4.542   2.040  0.3474  0.1486 -0.3683
18041SOL     OW55563   5.468   3.770   3.687 -0.0308 -0.5493  0.2306
18041SOL    HW155564   5.462   3.862   3.661 -0.2169 -0.4948  0.4693
18041SOL    HW255565   5.398   3.758   3.750 -0.1105 -0.8984  0.0795
18042SOL     OW55566   5.355   7.188   2.509 -0.6989 -0.1369  0.1609
18042SOL    HW155567   5.351   7.270   2.558 -0.9958 -0.3280  0.4581
18042SOL    HW255568   5.394   7.125   2.570  0.2158 -0.0467 -0.3103
18043SOL     OW55569   1.731   0.192   5.400  0.3905 -0.0767  0.0298
18043SOL    HW155570   1.733   0.148   5.485 -0.8377  4.0132  2.4531
18043SOL    HW255571   1.822   0.218   5.385  0.7828 -1.6332 -0.4750
18044SOL     OW55572   2.417   7.615   5.359  0.3477  0.1656  0.3598
18044SOL    HW155573   2.350   7.600   5.294  1.7129 -1.8592 -0.6683
18044SOL    HW255574   2.445   7.706   5.344  0.3594 -0.1249 -1.6519
18045SOL     OW55575   6.244   2.245   7.386 -0.0460 -0.2919  0.1762
18045SOL    HW155576   6.270   2.334   7.363  0.8527 -0.6056 -0.0751
18045SOL    HW255577   6.187   2.255   7.462  1.2216  0.4189  1.0772
18046SOL     OW55578   6.363   5.993  11.487 -0.3692 -0.0917 -0.0585
18046SOL    HW155579   6.341   6.069  11.541 -2.4005 -0.5257 -0.1923
18046SOL    HW255580   6.297   5.928  11.510 -0.1007 -0.9727 -1.6658
18047SOL     OW55581   0.736   5.118   3.272  0.0808  0.3598  0.4561
18047SOL    HW155582   0.773   5.198   3.234 -0.4260 -0.2298 -1.3637
18047SOL    HW255583   0.797   5.095   3.342  1.9836  0.6028 -1.0439
18048SOL     OW55584   6.627   0.809   5.416 -0.3185 -0.0529  0.3260
18048SOL    HW155585   6.533   0.825   5.423 -0.2847 -0.3040  1.4315
18048SOL    HW255586   6.646   0.822   5.323 -1.4143  0.1423  0.1146
18049SOL     OW55587   2.367   6.905   5.300  0.0263  0.5987 -0.5004
18049SOL    HW155588   2.339   6.828   5.250 -0.8063  0.0404  0.7585
18049SOL    HW255589   2.372   6.975   5.235 -3.3247  0.4803 -1.0630
18050SOL     OW55590   5.813   2.416   2.349  0.5756 -0.1180 -0.4901
18050SOL    HW155591   5.851   2.328   2.346 -0.5792 -0.7508  1.3902
18050SOL    HW255592   5.771   2.427   2.264  1.6805 -0.9183 -1.1646
18051SOL     OW55593   6.368   5.349   6.987  0.0400 -0.4907  0.4777
18051SOL    HW155594   6.321   5.310   7.061  0.4458  0.4182  1.2348
18051SOL    HW255595   6.460   5.325   7.002  0.7798  2.9526  2.5303
18052SOL     OW55596   2.916   4.162   3.867  0.5369 -0.1139  0.0780
18052SOL    HW155597   2.939   4.099   3.799 -1.5567  1.3650 -2.1840
18052SOL    HW255598   2.983   4.230   3.861  1.8290 -1.2069  1.3660
18053SOL     OW55599   3.860   7.004   3.447 -0.3754  0.4114  0.1914
18053SOL    HW155600   3.832   7.049   3.367  2.6684  1.6801 -0.3261
18053SOL    HW255601   3.881   7.075   3.507  2.0435 -0.3188  0.3096
18054SOL     OW55602   1.047   0.362   1.990  0.9707 -0.1469  0.4741
18054SOL    HW155603   1.047   0.457   1.994  0.9589 -0.1643  1.0503
18054SOL    HW255604   0.991   0.340   1.916  0.5377  0.2814  0.6738
18055SOL     OW55605   5.693   6.356   3.863  0.2661 -0.3399 -0.1162
18055SOL    HW155606   5.647   6.403   3.794 -0.9034  1.3029  1.6692
18055SOL    HW255607   5.649   6.271   3.868 -1.5905  0.5999  0.4637
18056SOL     OW55608   1.849   7.424   2.733  0.0576  0.5454 -0.2319
18056SOL    HW155609   1.923   7.456   2.681 -0.6887  1.6841 -0.6263
18056SOL    HW255610   1.867   7.454   2.821  1.7327 -2.0675  0.4423
18057SOL     OW55611   1.812   0.441  12.068  0.6252  0.5560  0.2341
18057SOL    HW155612   1.774   0.442  12.156  0.0531 -1.0113  0.0443
18057SOL    HW255613   1.786   0.525  12.029  0.3319  0.9862  1.3236
18058SOL     OW55614   1.593   3.534   0.380  0.5580  0.0528  0.2943
18058SOL    HW155615   1.550   3.510   0.298 -0.2812  1.5919  0.2435
18058SOL    HW255616   1.650   3.608   0.357  0.7090  0.1701  0.9983
18059SOL     OW55617   0.819   5.089  11.487 -0.7565  0.4624 -0.4408
18059SOL    HW155618   0.755   5.128  11.547  0.8709 -1.1394  2.5518
18059SOL    HW255619   0.775   5.011  11.453 -0.4607 -0.7801  1.8056
18060SOL     OW55620   3.110   7.592   6.234 -0.1545  0.4766 -0.3669
18060SOL    HW155621   3.186   7.599   6.292 -1.4150  0.1653  1.3913
18060SOL    HW255622   3.085   7.683   6.216 -0.9582  0.6041  1.2606
18061SOL     OW55623   0.076   5.264   4.757  0.5496 -0.5596 -0.4429
18061SOL    HW155624   0.117   5.230   4.837  4.1153  1.7470 -1.0479
18061SOL    HW255625   0.035   5.346   4.784 -0.4930 -1.0445 -0.5347
18062SOL     OW55626   7.229   0.997   7.473 -0.4485  0.6174  0.2257
18062SOL    HW155627   7.319   1.012   7.442 -0.3837  0.7209  0.4675
18062SOL    HW255628   7.237   0.929   7.539 -0.5167  0.7975  0.4217
18063SOL     OW55629   4.384   5.202   0.929  0.4335 -0.5321 -0.1163
18063SOL    HW155630   4.319   5.146   0.971  1.3817 -0.4139  1.5859
18063SOL    HW255631   4.449   5.141   0.894  1.2087 -0.5392  1.2977
18064SOL     OW55632   2.521   1.844   2.786 -0.7262 -0.9094 -0.5944
18064SOL    HW155633   2.505   1.749   2.786  0.4873 -1.1568 -2.0294
18064SOL    HW255634   2.483   1.874   2.704  0.6873 -0.5330 -1.1491
18065SOL     OW55635   2.006   5.662   0.379 -0.1975  0.4143 -0.5436
18065SOL    HW155636   2.059   5.708   0.314  0.7617  1.0957  0.6628
18065SOL    HW255637   2.069   5.609   0.429 -0.6404  1.1556  0.8625
18066SOL     OW55638   3.194   0.743   5.445  0.4724  0.3609 -0.5686
18066SOL    HW155639   3.197   0.755   5.350  1.1617  1.7724 -0.3988
18066SOL    HW255640   3.167   0.828   5.479  1.3165  0.1974  0.5648
18067SOL     OW55641   6.716   3.438   4.728 -0.6150 -0.6170 -1.1127
18067SOL    HW155642   6.687   3.528   4.742  1.4601 -0.0353 -0.1599
18067SOL    HW255643   6.647   3.384   4.767 -0.9320  0.6451  0.1571
18068SOL     OW55644   5.956   1.484   8.755  0.6118 -0.5672  0.3625
18068SOL    HW155645   6.009   1.412   8.721  1.1779 -0.8085  1.7013
18068SOL    HW255646   5.900   1.509   8.681  0.7706 -2.0232 -0.2940
18069SOL     OW55647   5.314   6.190   4.315 -0.2155 -0.3838  0.0501
18069SOL    HW155648   5.366   6.188   4.395 -0.7919  0.7915  0.4874
18069SOL    HW255649   5.240   6.132   4.332 -1.1842  1.0562  1.0307
18070SOL     OW55650   1.797   3.070   2.447  0.0752 -0.2306 -0.2815
18070SOL    HW155651   1.820   2.989   2.493 -0.8315 -0.9000 -0.9872
18070SOL    HW255652   1.734   3.113   2.504 -0.4133 -0.6505 -0.5030
18071SOL     OW55653   4.162   0.525   4.639 -0.1023  0.2409 -0.7435
18071SOL    HW155654   4.166   0.621   4.639  3.6392  0.2625  1.3173
18071SOL    HW255655   4.197   0.499   4.554  0.4478  0.7011 -0.6594
18072SOL     OW55656   3.786   6.883   7.543  0.0980 -0.3050  0.6573
18072SOL    HW155657   3.847   6.924   7.604  1.0426 -1.3903  0.4841
18072SOL    HW255658   3.757   6.954   7.485  0.5266  0.3887  1.2880
18073SOL     OW55659   1.828   3.646   7.095  0.0023  0.0087 -0.1444
18073SOL    HW155660   1.886   3.583   7.052 -0.1987 -0.0249 -0.3675
18073SOL    HW255661   1.868   3.661   7.181  0.4543  0.1448 -0.3772
18074SOL     OW55662   3.536   3.181   7.291 -0.0212 -0.0165 -0.2430
18074SOL    HW155663   3.595   3.202   7.219  1.6955 -0.5475  0.9510
18074SOL    HW255664   3.511   3.265   7.328  2.1223  0.2078  0.8460
18075SOL     OW55665   6.654   0.439   0.188  0.0289 -0.1762  0.3693
18075SOL    HW155666   6.697   0.403   0.111  0.6758  0.2144  0.5456
18075SOL    HW255667   6.726   0.462   0.247 -0.3482  1.7405  0.1245
18076SOL     OW55668   0.538   4.351   2.675 -0.0673 -0.0300  0.2792
18076SOL    HW155669   0.626   4.346   2.713  0.4822  2.2377 -0.5144
18076SOL    HW255670   0.485   4.395   2.742 -0.0067  0.6161 -0.0794
18077SOL     OW55671   5.366   7.421   2.706  0.1295  0.0438 -0.1795
18077SOL    HW155672   5.402   7.340   2.742  0.0064 -0.7295 -1.6984
18077SOL    HW255673   5.310   7.456   2.775  2.9003  0.7574  1.9191
18078SOL     OW55674   6.057   0.682   1.167  0.6640  0.6493 -0.4322
18078SOL    HW155675   5.995   0.741   1.124  1.4666 -0.2044 -2.9284
18078SOL    HW255676   6.008   0.645   1.240 -1.5560  0.5552 -1.8842
18079SOL     OW55677   1.312   1.178   1.648 -0.0783  0.2114  0.7286
18079SOL    HW155678   1.396   1.135   1.664  0.8489  1.3287 -0.8783
18079SOL    HW255679   1.331   1.271   1.651 -0.8352  0.4974 -1.4661
18080SOL     OW55680   1.456   6.236   8.287  0.1744  0.3667  0.2880
18080SOL    HW155681   1.374   6.280   8.262 -0.3685 -0.1818  1.0543
18080SOL    HW255682   1.472   6.265   8.377  1.4577  1.3650 -0.2289
18081SOL     OW55683   5.948   3.048   0.017 -0.0386 -0.5599  0.0273
18081SOL    HW155684   5.945   3.141  -0.005 -1.6219 -0.5607  0.1738
18081SOL    HW255685   5.977   3.046   0.108 -2.0809 -0.0517  0.7454
18082SOL     OW55686   6.147   6.311   2.575 -0.3998 -0.3456 -0.3418
18082SOL    HW155687   6.115   6.310   2.665  0.2072 -3.4581 -0.0583
18082SOL    HW255688   6.240   6.332   2.582 -0.8003  1.6873 -0.5232
18083SOL     OW55689   3.835   0.214   3.663  0.3490 -0.3379 -0.1497
18083SOL    HW155690   3.884   0.149   3.613 -0.1219 -0.0447 -1.0274
18083SOL    HW255691   3.845   0.187   3.754  1.6112 -0.6302 -0.3550
18084SOL     OW55692   0.028   4.103   8.054  0.2470 -0.4405  0.2386
18084SOL    HW155693   0.098   4.169   8.051 -1.4928  1.4340 -1.3656
18084SOL    HW255694  -0.043   4.145   8.103 -1.1405 -0.8084 -1.3751
18085SOL     OW55695   3.338   6.932   7.327  0.1370 -0.5583 -0.1808
18085SOL    HW155696   3.278   6.996   7.288  0.0272 -0.6192 -0.1121
18085SOL    HW255697   3.283   6.880   7.385  0.4138 -0.0654  0.5369
18086SOL     OW55698   1.949   1.241   5.715 -0.3669  0.3060 -0.7849
18086SOL    HW155699   1.953   1.242   5.811 -0.6953 -1.3545 -0.7317
18086SOL    HW255700   1.878   1.181   5.694  0.5641 -0.3966 -2.0760
18087SOL     OW55701   4.352   1.041   6.916  0.6459  0.6325 -0.0452
18087SOL    HW155702   4.296   1.081   6.850  1.9925  1.6550 -0.6083
18087SOL    HW255703   4.385   0.961   6.875 -0.5294 -0.0978  0.3730
18088SOL     OW55704   3.835   1.761   7.547  0.1324 -0.1987 -0.1931
18088SOL    HW155705   3.863   1.763   7.638  0.8273 -1.0102 -0.3802
18088SOL    HW255706   3.863   1.845   7.511 -0.1661  0.1326  0.3460
18089SOL     OW55707   5.640   4.588   5.723  0.2081  0.2271 -0.2214
18089SOL    HW155708   5.650   4.509   5.671  2.1377 -0.0820  0.5225
18089SOL    HW255709   5.592   4.649   5.666  2.1890 -0.0940 -2.3891
18090SOL     OW55710   2.971   0.134   5.206  0.1930 -0.6534 -0.2845
18090SOL    HW155711   2.990   0.091   5.290  0.0207 -0.6115 -0.2247
18090SOL    HW255712   3.027   0.212   5.207 -1.6407  0.7276  0.9143
18091SOL     OW55713   0.260   0.842  11.794  0.1827  0.9290  0.2946
18091SOL    HW155714   0.206   0.870  11.719  0.2643  3.2504  1.0380
18091SOL    HW255715   0.216   0.763  11.826 -0.1300  0.1591 -1.8848
18092SOL     OW55716   5.051   5.488   2.313  0.3515 -0.0683  0.0864
18092SOL    HW155717   5.073   5.573   2.352  0.5957 -0.3147  0.4944
18092SOL    HW255718   5.125   5.431   2.336  0.4198 -0.2700 -0.5928
18093SOL     OW55719   7.001   3.393   0.743 -0.3755  0.8361  0.3215
18093SOL    HW155720   6.939   3.323   0.722 -0.3865  0.7365  0.6869
18093SOL    HW255721   7.041   3.416   0.659 -2.0023  1.9581 -0.1938
18094SOL     OW55722   7.352   5.132   0.473 -0.1644  0.1302  0.0397
18094SOL    HW155723   7.437   5.100   0.443 -1.0441  0.1369 -2.6604
18094SOL    HW255724   7.370   5.220   0.506  1.1074 -0.4938  1.1430
18095SOL     OW55725   2.701   6.892   1.510 -0.1033 -0.0462  0.1185
18095SOL    HW155726   2.628   6.938   1.469  1.1739  0.5857 -1.5665
18095SOL    HW255727   2.684   6.800   1.493 -1.2384 -0.0212  1.0366
18096SOL     OW55728   1.605   6.563   4.278  0.1865  0.2522  0.4626
18096SOL    HW155729   1.536   6.497   4.269  1.3760 -0.7056 -3.8190
18096SOL    HW255730   1.558   6.644   4.297 -1.6849 -0.9909  1.5473
18097SOL     OW55731   7.383   4.674  12.040 -0.4645  0.1658 -0.4726
18097SOL    HW155732   7.337   4.683  11.957  0.0987  1.6636 -0.6571
18097SOL    HW255733   7.455   4.736  12.034  0.8534 -1.2345  0.3091
18098SOL     OW55734   4.635   6.963   2.559 -0.2484  0.3219 -0.1837
18098SOL    HW155735   4.586   6.952   2.640  1.2883  0.3067  0.7806
18098SOL    HW255736   4.726   6.945   2.583  0.1746 -0.2268 -2.0380
18099SOL     OW55737   3.492   5.925   7.276  0.1683  0.2848  0.1135
18099SOL    HW155738   3.451   5.986   7.337  1.1358  1.9551 -0.8034
18099SOL    HW255739   3.506   5.845   7.327 -3.1302 -0.0148  0.7465
18100SOL     OW55740   3.884   1.574   5.248 -0.2374  0.3821 -0.3285
18100SOL    HW155741   3.808   1.522   5.275  0.6189  0.2289  2.0152
18100SOL    HW255742   3.883   1.650   5.306  0.9519  0.7734 -0.7860
18101SOL     OW55743   0.429   7.130   3.114  0.0474 -0.3309 -0.1383
18101SOL    HW155744   0.497   7.170   3.168  0.2503 -0.0247 -0.6037
18101SOL    HW255745   0.361   7.102   3.175 -0.1082  0.7593  0.2057
18102SOL     OW55746   7.035   3.892  11.417  0.4554 -0.1083  0.2349
18102SOL    HW155747   7.015   3.969  11.470 -0.3442  1.1268 -1.7149
18102SOL    HW255748   6.950   3.853  11.398  0.8974 -1.9102  1.7347
18103SOL     OW55749   4.138   2.780   1.954 -0.2511  0.3779 -0.0827
18103SOL    HW155750   4.209   2.844   1.955  0.2589 -0.1788 -0.3019
18103SOL    HW255751   4.147   2.733   2.038  0.9908 -1.1331 -0.9947
18104SOL     OW55752   2.698   0.366   9.870 -0.6181  0.4856  0.0446
18104SOL    HW155753   2.749   0.285   9.866  0.0850  0.8048  1.6276
18104SOL    HW255754   2.641   0.355   9.946 -0.1607  1.6462  0.5895
18105SOL     OW55755   0.411   6.292   1.667  0.4895 -0.0917  0.0030
18105SOL    HW155756   0.359   6.356   1.715  1.8987  0.5219  0.7827
18105SOL    HW255757   0.497   6.296   1.708  0.6740 -2.3928 -0.0291
18106SOL     OW55758   0.664   7.115   0.281  0.0076 -0.2674 -0.3187
18106SOL    HW155759   0.648   7.195   0.231  1.2097 -0.4831 -1.0672
18106SOL    HW255760   0.643   7.044   0.221 -1.0316 -0.5312  0.3376
18107SOL     OW55761   3.044   0.250   9.496  0.5219 -0.6796  0.2003
18107SOL    HW155762   2.967   0.300   9.522  0.3687 -0.5821 -0.4319
18107SOL    HW255763   3.028   0.162   9.532  0.0637 -0.6923 -0.0293
18108SOL     OW55764   5.126   2.348   9.285  0.3270  0.0471  0.0373
18108SOL    HW155765   5.058   2.416   9.284 -0.8656 -1.0975  0.1671
18108SOL    HW255766   5.079   2.268   9.309  1.5035 -1.0382 -1.1218
18109SOL     OW55767   3.410   2.376   0.878  0.4215 -0.1225  0.1702
18109SOL    HW155768   3.366   2.418   0.951  1.2696  0.7349  0.2047
18109SOL    HW255769   3.483   2.328   0.918  1.8870  1.6771 -0.2163
18110SOL     OW55770   3.302   6.074   7.445 -0.5487  0.7626 -0.0145
18110SOL    HW155771   3.280   6.102   7.356  0.5196  2.1609  0.1305
18110SOL    HW255772   3.217   6.060   7.487 -1.0883 -0.9845 -1.5295
18111SOL     OW55773   7.783   7.468   9.231 -0.4135  0.0536  0.2648
18111SOL    HW155774   7.702   7.466   9.283 -0.0630 -0.2131  0.8164
18111SOL    HW255775   7.778   7.550   9.182 -1.2882 -0.2392 -0.1478
18112SOL     OW55776   2.112   7.049   8.903  0.2488 -0.2447 -0.1337
18112SOL    HW155777   2.112   6.956   8.878 -1.2129 -0.8344  1.7746
18112SOL    HW255778   2.157   7.050   8.988  0.9425  0.9425 -0.4972
18113SOL     OW55779   1.669   3.701   1.978 -0.8645  0.1130  0.3377
18113SOL    HW155780   1.705   3.785   1.950 -0.6567 -0.7261 -2.2529
18113SOL    HW255781   1.728   3.671   2.046  0.6585  0.8857 -0.5874
18114SOL     OW55782   0.875   2.939   1.876  0.2204  0.5524  0.1066
18114SOL    HW155783   0.953   2.967   1.829 -1.0298  2.4394 -0.9734
18114SOL    HW255784   0.870   2.998   1.952  1.0273 -1.0480  1.4683
18115SOL     OW55785   1.033   3.713   3.562  0.7273  0.1575 -0.2411
18115SOL    HW155786   1.103   3.674   3.614 -1.3873  0.4296  3.0662
18115SOL    HW255787   1.028   3.804   3.590 -1.6670 -0.1459  0.5793
18116SOL     OW55788   1.874   5.536   3.727  0.1766 -0.9440  0.1708
18116SOL    HW155789   1.872   5.631   3.744  0.1967 -0.5719 -1.7261
18116SOL    HW255790   1.900   5.498   3.811 -0.8542  0.6384  1.2659
18117SOL     OW55791   6.829   1.657   8.286  0.4980 -0.4154  0.4363
18117SOL    HW155792   6.908   1.707   8.266 -0.1470  0.3905 -0.1804
18117SOL    HW255793   6.778   1.659   8.204 -0.7170  0.1392  1.1812
18118SOL     OW55794   5.843   5.382   8.079  0.4386  0.3289 -0.3786
18118SOL    HW155795   5.918   5.406   8.134  0.5716 -0.3022 -0.2739
18118SOL    HW255796   5.842   5.286   8.081  0.1625  0.3094 -1.0962
18119SOL     OW55797   2.779   0.691   5.664 -0.6040 -0.1814  0.4110
18119SOL    HW155798   2.770   0.786   5.656  0.0256 -0.1849 -0.4936
18119SOL    HW255799   2.850   0.679   5.728 -0.2470 -0.0254  0.0521
18120SOL     OW55800   7.183   0.391   3.483 -0.2562  0.3549  0.2411
18120SOL    HW155801   7.117   0.349   3.427 -1.1011  1.5754  0.2697
18120SOL    HW255802   7.254   0.413   3.423 -0.7894  0.8942 -0.2133
18121SOL     OW55803   5.703   2.165   8.672 -0.2845  0.5039  0.0098
18121SOL    HW155804   5.652   2.128   8.600  0.2066 -0.0383 -0.0614
18121SOL    HW255805   5.650   2.148   8.750  0.0061 -0.5152  0.0026
18122SOL     OW55806   7.752   1.089   1.648 -0.2800  0.2096  0.0253
18122SOL    HW155807   7.682   1.058   1.705  0.2521 -2.2614 -0.5323
18122SOL    HW255808   7.823   1.025   1.660 -0.4521 -1.0167 -3.9816
18123SOL     OW55809   1.187   5.243   5.717  0.2159  0.6077 -0.1703
18123SOL    HW155810   1.116   5.291   5.673 -1.2115 -0.1081  1.2921
18123SOL    HW255811   1.158   5.152   5.719  0.7427  0.4439  1.2717
18124SOL     OW55812   2.123   1.385   5.491 -0.3991 -0.6284  0.4028
18124SOL    HW155813   2.112   1.459   5.551 -1.7890  0.2685 -0.9234
18124SOL    HW255814   2.217   1.364   5.497  0.4781  2.5160 -0.6367
18125SOL     OW55815   6.832   5.725   0.020  0.1124  0.7272  0.0041
18125SOL    HW155816   6.755   5.747   0.072 -1.3416 -0.0027 -1.7184
18125SOL    HW255817   6.880   5.807   0.010  1.1816  0.6998  3.4567
18126SOL     OW55818   4.690   2.946   6.991 -0.7488 -0.5180  0.5387
18126SOL    HW155819   4.740   2.951   7.072 -0.0592 -0.3743  0.1107
18126SOL    HW255820   4.721   3.019   6.938 -0.4685 -1.1932 -0.2519
18127SOL     OW55821   4.149   1.778  11.516  0.5413 -0.1946 -0.0593
18127SOL    HW155822   4.207   1.852  11.498  0.1008  0.2540  0.3426
18127SOL    HW255823   4.074   1.817  11.562 -0.0295 -0.7815 -0.4865
18128SOL     OW55824   3.808   6.301  10.801  0.2511 -0.4587  0.0854
18128SOL    HW155825   3.801   6.344  10.716  1.5250 -0.2770  0.0597
18128SOL    HW255826   3.858   6.362  10.856  0.3128 -1.0138  0.6629
18129SOL     OW55827   3.318   7.947  12.050  0.0228 -0.1159 -0.1263
18129SOL    HW155828   3.327   7.928  12.143  2.0776 -0.2335 -0.3167
18129SOL    HW255829   3.342   8.039  12.042 -0.0794 -0.1264 -0.5665
18130SOL     OW55830   3.363   5.196   4.122 -0.0476  0.3644  0.5313
18130SOL    HW155831   3.330   5.123   4.069  3.1866 -0.3499 -0.7174
18130SOL    HW255832   3.284   5.234   4.162 -2.2776 -1.3748 -1.8532
18131SOL     OW55833   5.893   3.828   6.882  0.2699 -0.5993  0.4774
18131SOL    HW155834   5.975   3.877   6.874  0.4570 -1.2434 -3.0278
18131SOL    HW255835   5.852   3.864   6.961  3.6782  0.0049  2.1741
18132SOL     OW55836   1.677   5.068   6.466 -0.0606  0.1843  0.2233
18132SOL    HW155837   1.640   4.982   6.483 -1.4470  0.3808 -1.5145
18132SOL    HW255838   1.602   5.127   6.465  0.5592  1.0089 -1.0087
18133SOL     OW55839   2.296   5.573   4.176 -0.0397 -0.2555 -0.4596
18133SOL    HW155840   2.283   5.667   4.186  0.7049 -0.3373  1.7692
18133SOL    HW255841   2.212   5.534   4.200  0.0598 -0.2219 -0.0634
18134SOL     OW55842   0.702   4.840  11.437  0.3933 -0.1149  0.1530
18134SOL    HW155843   0.638   4.776  11.468  1.5613 -0.7961  1.2622
18134SOL    HW255844   0.782   4.789  11.426  1.2913  1.1003  0.8455
18135SOL     OW55845   5.292   6.902   6.569  0.2625 -0.0447 -0.6720
18135SOL    HW155846   5.201   6.932   6.567  0.0048 -0.6591  0.5651
18135SOL    HW255847   5.286   6.807   6.569  0.8401 -0.1028  0.6334
18136SOL     OW55848   7.410   7.095  10.955  0.8301  0.1708 -0.0226
18136SOL    HW155849   7.447   7.178  10.925  2.1958 -0.2091  0.5278
18136SOL    HW255850   7.405   7.105  11.050 -2.9440  1.1642 -0.1764
18137SOL     OW55851   3.558   2.975   4.991  0.3782  0.0235 -0.3239
18137SOL    HW155852   3.584   2.887   4.965 -0.4153 -1.0085  2.1306
18137SOL    HW255853   3.636   3.013   5.030  0.3223 -0.1467 -0.0460
18138SOL     OW55854   7.736   7.583   2.318 -0.6847 -0.1932  0.1843
18138SOL    HW155855   7.754   7.491   2.304 -0.2787  0.1456 -1.8848
18138SOL    HW255856   7.670   7.605   2.252  1.2267  1.5734 -1.2473
18139SOL     OW55857   2.783   6.804   3.572  0.0027  0.7013 -0.5996
18139SOL    HW155858   2.792   6.899   3.583 -0.7279  0.6771  0.2794
18139SOL    HW255859   2.689   6.790   3.562 -0.0475 -0.0767  0.8218
18140SOL     OW55860   1.585   2.022   1.039 -0.3904 -0.3397 -0.2176
18140SOL    HW155861   1.641   1.955   1.001  0.2632 -0.2144  0.5082
18140SOL    HW255862   1.500   1.979   1.049  0.3870 -1.5834  1.6300
18141SOL     OW55863   3.684   6.912   5.836 -0.3229 -0.6847 -0.1420
18141SOL    HW155864   3.718   6.886   5.921 -2.1367  0.4282  0.9794
18141SOL    HW255865   3.731   6.993   5.815 -0.5113 -0.4731  0.2407
18142SOL     OW55866   1.213   5.182   2.645 -0.0396  0.7999  0.5570
18142SOL    HW155867   1.255   5.256   2.603  0.1528  1.3353  1.6555
18142SOL    HW255868   1.231   5.194   2.738  0.6224 -1.0052  0.7076
18143SOL     OW55869   5.404   7.587   5.782 -0.3269  0.0186  0.3290
18143SOL    HW155870   5.483   7.632   5.754 -0.1961 -1.1566 -1.2895
18143SOL    HW255871   5.370   7.641   5.854  2.3869  0.0824  1.6862
18144SOL     OW55872   6.166   5.482   0.485 -0.2561  0.0805 -0.0606
18144SOL    HW155873   6.256   5.506   0.510 -0.7186  1.3509  0.4401
18144SOL    HW255874   6.176   5.399   0.438  1.1606  0.1026  0.1534
18145SOL     OW55875   5.071   1.548  10.909 -0.5355 -0.5984  0.3328
18145SOL    HW155876   5.099   1.628  10.953  0.4820 -1.1452  0.7094
18145SOL    HW255877   5.148   1.521  10.859 -0.8208 -1.4227  0.3363
18146SOL     OW55878   3.450   3.097  11.851 -0.4430  0.2083  0.0930
18146SOL    HW155879   3.411   3.011  11.871  0.2882 -0.3273 -0.6919
18146SOL    HW255880   3.473   3.092  11.758  0.8441  0.7412  0.3513
18147SOL     OW55881   1.502   2.018   1.892  0.0133 -0.2181  0.4431
18147SOL    HW155882   1.486   2.069   1.972  0.4069 -2.6402  2.1835
18147SOL    HW255883   1.420   1.971   1.877  0.4519 -0.9666  0.3441
18148SOL     OW55884   3.206   5.231   8.673 -0.1394  0.1925 -0.3159
18148SOL    HW155885   3.155   5.281   8.609 -0.5161  2.1583  1.3870
18148SOL    HW255886   3.175   5.263   8.758  2.5030 -0.0216  0.8133
18149SOL     OW55887   4.024   3.851  10.613 -0.2395  0.4177  0.3795
18149SOL    HW155888   4.074   3.917  10.565  0.1721  1.0900  1.7079
18149SOL    HW255889   3.937   3.890  10.623 -0.3444  0.2498  0.1338
18150SOL     OW55890   3.409   4.428   0.690 -0.0266  0.1219 -0.4771
18150SOL    HW155891   3.323   4.470   0.698 -0.1754 -0.0341 -1.1972
18150SOL    HW255892   3.471   4.498   0.711 -0.2187  1.1219 -2.8684
18151SOL     OW55893   2.027   2.555   0.811 -0.1146  0.0961  0.2091
18151SOL    HW155894   2.060   2.602   0.888  1.1747 -0.3875 -0.0269
18151SOL    HW255895   2.103   2.507   0.778 -0.7583 -0.0470 -1.1191
18152SOL     OW55896   1.972   3.132   0.434  0.4262 -0.3380 -0.7682
18152SOL    HW155897   1.998   3.081   0.510 -2.0090  0.2362  0.5404
18152SOL    HW255898   2.006   3.082   0.359  2.1794 -1.3419  0.6231
18153SOL     OW55899   2.003   3.216  10.935  0.1206  0.1259  0.2298
18153SOL    HW155900   1.974   3.149  10.873  0.0776  0.0290  0.3515
18153SOL    HW255901   1.924   3.267  10.953  0.0211 -0.1351  0.5569
18154SOL     OW55902   7.366   6.306   7.628  0.4783  0.1277  0.0621
18154SOL    HW155903   7.404   6.359   7.558 -0.0956 -1.0584 -1.1928
18154SOL    HW255904   7.328   6.231   7.583 -1.2448  0.0733  1.5188
18155SOL     OW55905   5.549   5.341   9.910  0.1304 -0.4899 -0.1386
18155SOL    HW155906   5.622   5.401   9.892 -0.0805  0.2444  1.2752
18155SOL    HW255907   5.486   5.358   9.839 -0.8817  2.6200  1.3047
18156SOL     OW55908   6.541   2.751   4.549 -0.3534  0.1988  0.1691
18156SOL    HW155909   6.554   2.734   4.456  0.4758  2.4245 -0.1895
18156SOL    HW255910   6.614   2.705   4.592 -1.0506 -1.2991 -0.1747
18157SOL     OW55911   1.673   6.508  11.433  0.4987 -0.1216 -0.1006
18157SOL    HW155912   1.679   6.603  11.445  0.7633 -0.0941 -0.4451
18157SOL    HW255913   1.677   6.495  11.339  1.6043 -0.5476 -0.0041
18158SOL     OW55914   7.450   3.183   2.624  0.0910 -0.1117 -0.4230
18158SOL    HW155915   7.417   3.273   2.622 -0.4770 -0.3342 -1.2028
18158SOL    HW255916   7.540   3.190   2.592  0.8213  0.4766  1.5812
18159SOL     OW55917   5.744   2.713   4.151  0.3683  0.2536  0.6115
18159SOL    HW155918   5.705   2.627   4.136  0.1450  0.6136 -1.1232
18159SOL    HW255919   5.680   2.759   4.206 -0.7268  0.1293 -0.5051
18160SOL     OW55920   6.046   3.719   5.685 -0.6431 -0.1908  0.0680
18160SOL    HW155921   6.019   3.655   5.618 -0.6319 -1.2354  1.0281
18160SOL    HW255922   5.973   3.721   5.747  0.6777 -1.8020  1.8037
18161SOL     OW55923   6.585   2.011   6.480 -0.5074  0.1880  0.6323
18161SOL    HW155924   6.569   2.041   6.390  0.5856 -1.2508 -0.0996
18161SOL    HW255925   6.515   2.050   6.532 -1.1174  1.1300 -0.8311
18162SOL     OW55926   1.364   5.264   3.248  0.5013  0.0270 -0.3356
18162SOL    HW155927   1.381   5.269   3.342  0.4150 -1.7563 -0.1906
18162SOL    HW255928   1.442   5.300   3.207  0.6019  0.6824  0.3914
18163SOL     OW55929   5.203   0.691   8.950 -0.4353  0.2007 -0.3357
18163SOL    HW155930   5.273   0.752   8.929  1.2282 -0.7895  1.8532
18163SOL    HW255931   5.223   0.613   8.897 -0.8858  0.5232 -0.9843
18164SOL     OW55932   0.250   6.914   4.416  0.0605 -0.2315 -0.0831
18164SOL    HW155933   0.196   6.853   4.466 -0.6579 -0.6183 -1.2852
18164SOL    HW255934   0.339   6.882   4.426 -0.3995 -2.2088 -1.5942
18165SOL     OW55935   4.611   1.732  11.575 -0.2052  0.4228  0.1380
18165SOL    HW155936   4.543   1.787  11.537 -0.5280  0.1350  0.2927
18165SOL    HW255937   4.685   1.740  11.515 -0.9936 -0.7122 -1.0420
18166SOL     OW55938   4.280   7.946   3.009  0.1575 -0.0055 -0.2212
18166SOL    HW155939   4.362   7.909   2.976  0.0932 -0.8733  0.5853
18166SOL    HW255940   4.212   7.895   2.966  0.0567 -0.1171  0.0713
18167SOL     OW55941   7.652   0.798   9.146  0.2380 -0.1311  0.5172
18167SOL    HW155942   7.613   0.873   9.101  2.7444  0.7634 -0.3621
18167SOL    HW255943   7.683   0.741   9.076  1.9476  0.0334  1.0840
18168SOL     OW55944   3.340   4.143  11.042 -0.5650 -0.0505 -0.1216
18168SOL    HW155945   3.248   4.120  11.030 -0.7217  0.6381 -0.3072
18168SOL    HW255946   3.349   4.160  11.135 -0.8802  0.8762 -0.2438
18169SOL     OW55947   4.137   6.752   1.130  0.8230  0.9826  0.3768
18169SOL    HW155948   4.226   6.734   1.100 -0.3891 -1.4531 -2.2983
18169SOL    HW255949   4.120   6.687   1.197  0.2511 -0.4626 -1.0896
18170SOL     OW55950   2.431   0.125   7.916  0.1900 -0.0027  0.1911
18170SOL    HW155951   2.467   0.183   7.984  1.2479 -0.3817 -0.0202
18170SOL    HW255952   2.483   0.146   7.838 -0.9014  0.3129 -0.4715
18171SOL     OW55953   1.803   7.669   1.349 -0.0819 -0.5109 -0.0268
18171SOL    HW155954   1.829   7.696   1.437 -0.2146 -0.4340 -0.0102
18171SOL    HW255955   1.811   7.749   1.296  0.7165 -0.7300 -0.2476
18172SOL     OW55956   3.920   7.785   7.462 -0.4703 -0.1054  0.0250
18172SOL    HW155957   3.890   7.718   7.523 -1.8895 -0.1617 -0.7008
18172SOL    HW255958   3.900   7.868   7.505 -2.0583 -0.1398 -0.6105
18173SOL     OW55959   4.098   0.075  11.169 -0.8384  0.8980 -0.2288
18173SOL    HW155960   4.185   0.093  11.206 -0.8632  0.8434 -0.1443
18173SOL    HW255961   4.039   0.130  11.219 -1.5024 -2.1923  2.7486
18174SOL     OW55962   6.880   5.307   1.153 -0.1068 -0.1057  0.1018
18174SOL    HW155963   6.794   5.279   1.183  0.0581  0.5961  1.2937
18174SOL    HW255964   6.880   5.402   1.165  0.9777 -0.1420  0.5494
18175SOL     OW55965   3.751   7.386   2.981 -0.0620  0.2070 -0.0245
18175SOL    HW155966   3.828   7.333   2.998 -0.3239 -0.8984 -1.9764
18175SOL    HW255967   3.762   7.464   3.036  1.7566 -0.5454  0.7330
18176SOL     OW55968   3.591   6.294   9.074  0.3577 -0.1791  0.0148
18176SOL    HW155969   3.593   6.206   9.037 -0.3909  0.4867 -1.7379
18176SOL    HW255970   3.660   6.342   9.029  0.2605  0.3371  0.3956
18177SOL     OW55971   3.022   7.667   8.872 -0.1335 -0.3151 -0.0398
18177SOL    HW155972   3.079   7.664   8.796 -2.2114  1.2842 -1.7920
18177SOL    HW255973   3.048   7.746   8.919 -0.6501  0.2476 -0.6739
18178SOL     OW55974   0.010   0.911   9.124  0.4138  0.5772 -0.3236
18178SOL    HW155975   0.096   0.952   9.109  0.4875  0.0150 -1.5144
18178SOL    HW255976   0.006   0.840   9.061  0.0740 -0.9741  1.3645
18179SOL     OW55977   4.433   2.821  10.440  0.4134 -0.0398  0.6666
18179SOL    HW155978   4.437   2.729  10.467  1.6252 -0.5919 -1.2227
18179SOL    HW255979   4.358   2.825  10.381  0.1354  0.2973  1.0337
18180SOL     OW55980   5.191   2.937   7.734 -0.7110 -0.0958 -0.4619
18180SOL    HW155981   5.123   3.005   7.732 -0.5942  0.0167 -0.6608
18180SOL    HW255982   5.149   2.859   7.697 -0.2717  0.4052 -2.1485
18181SOL     OW55983   7.533   0.921   6.831 -0.4387 -0.0377  0.1535
18181SOL    HW155984   7.551   0.963   6.747 -0.3677 -0.1316  0.1214
18181SOL    HW255985   7.504   0.833   6.808 -0.8214  0.0730  0.2105
18182SOL     OW55986   2.464   2.513  10.656  0.3832  0.2109  0.0915
18182SOL    HW155987   2.541   2.552  10.613  1.3874 -0.9178  0.7975
18182SOL    HW255988   2.488   2.511  10.749 -0.4828 -0.2310  0.3072
18183SOL     OW55989   6.962   7.428   9.027 -0.0347  0.0891  0.3075
18183SOL    HW155990   7.046   7.454   9.065  0.2632  0.5040 -0.6090
18183SOL    HW255991   6.952   7.336   9.051  1.2715 -0.3070 -0.5657
18184SOL     OW55992   4.707   4.029   0.511  0.0249 -0.1494 -0.1972
18184SOL    HW155993   4.786   3.981   0.485  0.6769  2.0046 -2.5641
18184SOL    HW255994   4.642   4.007   0.445  0.1806  1.7561 -1.0303
18185SOL     OW55995   0.476   2.121   2.978  0.0484 -0.1575 -0.1227
18185SOL    HW155996   0.460   2.147   2.887 -0.8040  2.3268  0.6650
18185SOL    HW255997   0.398   2.152   3.025  1.7218  1.1723  1.9000
18186SOL     OW55998   3.975   7.678  10.900  0.2884  0.1696  0.1345
18186SOL    HW155999   4.009   7.591  10.922 -1.2125 -0.2859  0.7860
18186SOL    HW256000   3.967   7.723  10.984  1.9165  1.3125 -0.2733
18187SOL     OW56001   5.725   4.405   6.988  0.5536 -0.3971 -0.3040
18187SOL    HW156002   5.790   4.413   7.058  1.3287  0.5419 -1.0924
18187SOL    HW256003   5.642   4.393   7.033  0.9538  0.7703  0.8039
18188SOL     OW56004   5.222   2.520   7.268  0.4658  0.4138 -0.1166
18188SOL    HW156005   5.207   2.605   7.228 -0.2906  0.3443 -0.0038
18188SOL    HW256006   5.134   2.491   7.296  0.9029  0.2888  1.2117
18189SOL     OW56007   1.542   0.568  11.039  0.0221  0.6244  0.2111
18189SOL    HW156008   1.539   0.627  10.964  0.4502  0.5562  0.1412
18189SOL    HW256009   1.632   0.573  11.072 -0.4225  1.4778  1.3806
18190SOL     OW56010   7.312   2.985   4.461  0.3795 -0.3941 -0.4936
18190SOL    HW156011   7.327   3.077   4.484  1.9796 -0.6622 -0.3414
18190SOL    HW256012   7.361   2.972   4.380 -1.2517 -0.7096 -1.4882
18191SOL     OW56013   2.467   3.194   9.070  0.0529 -0.2427  0.3548
18191SOL    HW156014   2.435   3.119   9.020  1.9065 -0.6238 -0.3205
18191SOL    HW256015   2.427   3.270   9.027  0.4041 -0.6665 -0.7692
18192SOL     OW56016   7.063   7.772   5.884  0.5898 -1.0036 -0.0377
18192SOL    HW156017   7.118   7.717   5.828  1.3307  0.4374 -0.7713
18192SOL    HW256018   7.106   7.858   5.884 -1.6746  0.2151 -0.7107
18193SOL     OW56019   1.482   2.920   8.004 -0.0624 -0.8447 -0.3203
18193SOL    HW156020   1.410   2.889   8.059  0.1544 -1.0000 -0.1230
18193SOL    HW256021   1.443   2.990   7.951  0.3355  1.0958  1.8065
18194SOL     OW56022   3.290   0.530   8.755  0.4698 -0.1962  0.2295
18194SOL    HW156023   3.318   0.554   8.843 -0.4845 -0.2953  0.5641
18194SOL    HW256024   3.195   0.534   8.758  0.3677  3.6251 -1.8245
18195SOL     OW56025   5.729   4.296   3.427  0.0464  0.1618 -0.0376
18195SOL    HW156026   5.724   4.201   3.421 -1.1871  0.2717 -1.2341
18195SOL    HW256027   5.728   4.315   3.521 -1.3005 -0.9485  0.1956
18196SOL     OW56028   5.273   4.393   8.008  0.3986 -0.8037 -0.5020
18196SOL    HW156029   5.179   4.397   8.021 -0.3102 -3.6125 -3.3594
18196SOL    HW256030   5.303   4.323   8.066  1.5296  2.3029  3.0180
18197SOL     OW56031   0.606   2.630   0.506  0.3406 -0.5590 -0.2338
18197SOL    HW156032   0.569   2.589   0.428  1.8378 -0.5407 -0.9825
18197SOL    HW256033   0.546   2.701   0.527 -0.4250 -0.9705 -0.9705
18198SOL     OW56034   6.612   4.822   4.016  0.1447 -0.0165  0.5170
18198SOL    HW156035   6.528   4.780   4.028 -0.6704  1.1426 -0.7916
18198SOL    HW256036   6.619   4.837   3.922  1.7620  0.0258  0.6040
18199SOL     OW56037   5.688   5.005   1.164 -0.0150 -0.2958 -0.0435
18199SOL    HW156038   5.653   5.082   1.209  0.8072  0.1065 -0.0958
18199SOL    HW256039   5.658   4.931   1.218 -0.4595  0.0803  0.2318
18200SOL     OW56040   1.915   6.037   8.086 -0.1891  0.3791 -0.4338
18200SOL    HW156041   1.969   5.958   8.086  0.4610  0.7839 -1.9254
18200SOL    HW256042   1.872   6.037   8.000 -2.0564  0.4266  0.4691
18201SOL     OW56043   4.192   6.571   6.254  0.2988 -0.2908  0.5857
18201SOL    HW156044   4.133   6.580   6.179  3.5699  0.5233 -2.1417
18201SOL    HW256045   4.208   6.476   6.260 -0.4707 -0.4213  0.7323
18202SOL     OW56046   1.910   3.044   1.331  0.1224  0.7240 -0.1828
18202SOL    HW156047   1.878   3.076   1.415 -0.1920  1.6869 -0.6587
18202SOL    HW256048   2.001   3.074   1.328 -0.0868  1.3399 -0.5031
18203SOL     OW56049   2.784   1.642   0.780  0.4025 -0.5014  0.3989
18203SOL    HW156050   2.796   1.715   0.719  0.9199 -0.9587 -0.0603
18203SOL    HW256051   2.824   1.671   0.861  1.2815 -0.5487 -0.0040
18204SOL     OW56052   4.897   5.065   5.026 -0.1323  0.0974  0.3412
18204SOL    HW156053   4.816   5.082   5.073 -0.1304  2.3593 -0.3756
18204SOL    HW256054   4.958   5.035   5.093 -1.3853 -1.2145  0.9583
18205SOL     OW56055   6.103   2.327   7.646 -0.1410 -0.0849 -0.2134
18205SOL    HW156056   6.141   2.281   7.721 -0.0817  0.2742 -0.0206
18205SOL    HW256057   6.119   2.420   7.664 -1.6598  0.1348  0.1912
18206SOL     OW56058   0.408   5.034   1.102 -0.0120 -0.8501 -0.2510
18206SOL    HW156059   0.314   5.045   1.113  0.1593  0.6707 -0.0314
18206SOL    HW256060   0.443   5.123   1.109  1.4802 -1.4349  0.0505
18207SOL     OW56061   6.093   0.652   3.023  0.3996 -0.5683  0.1931
18207SOL    HW156062   6.012   0.667   2.975  0.7970 -0.0827 -0.3308
18207SOL    HW256063   6.069   0.660   3.115 -0.1312 -0.3743  0.0365
18208SOL     OW56064   3.417   6.441  10.044 -0.0788 -0.1265 -0.5475
18208SOL    HW156065   3.463   6.438   9.959 -0.0907 -1.0323 -0.5403
18208SOL    HW256066   3.477   6.396  10.104 -0.3232  0.0046 -0.2092
18209SOL     OW56067   5.111   4.670   7.133  0.1231 -0.4135 -0.1923
18209SOL    HW156068   5.162   4.724   7.072  0.8494 -1.0978 -0.2142
18209SOL    HW256069   5.118   4.715   7.217 -1.0169  0.6237 -0.6216
18210SOL     OW56070   1.018   0.298   2.285 -0.1611 -0.2098  0.8943
18210SOL    HW156071   1.107   0.284   2.253  0.3498  2.1636  1.1050
18210SOL    HW256072   0.967   0.324   2.208 -1.1088 -2.9595  0.4856
18211SOL     OW56073   1.662   6.160   8.845 -0.2945 -0.1883 -0.0874
18211SOL    HW156074   1.712   6.237   8.871 -1.0917 -0.6178  3.2301
18211SOL    HW256075   1.625   6.182   8.760  0.0950  2.7918  0.4076
18212SOL     OW56076   5.438   4.905   9.361 -0.4344 -0.1852 -0.2352
18212SOL    HW156077   5.403   4.825   9.321  1.5187 -1.3252  0.1812
18212SOL    HW256078   5.433   4.970   9.292 -0.3452 -1.1905 -1.2236
18213SOL     OW56079   1.833   1.294  11.929  0.1493  0.3641  0.4994
18213SOL    HW156080   1.895   1.239  11.879 -0.8507  0.1090 -0.5171
18213SOL    HW256081   1.849   1.271  12.020  0.1939 -1.1896  0.1363
18214SOL     OW56082   5.010   0.649   9.186 -0.2372 -0.1456 -0.0801
18214SOL    HW156083   5.082   0.623   9.245 -1.4093 -0.7047  1.1623
18214SOL    HW256084   5.002   0.577   9.125 -1.3843 -1.3131  1.3803
18215SOL     OW56085   3.139   1.757  11.838  0.5460  0.1026  0.3528
18215SOL    HW156086   3.058   1.706  11.837  0.0841  0.6890 -2.9822
18215SOL    HW256087   3.124   1.828  11.775  3.3822  0.6842  0.1891
18216SOL     OW56088   0.946   1.606   3.361 -0.0738  0.5016 -0.1994
18216SOL    HW156089   0.904   1.691   3.354 -1.1034 -0.0729 -1.6488
18216SOL    HW256090   1.018   1.609   3.298 -0.8294 -0.0599 -1.1213
18217SOL     OW56091   6.919   5.782   6.825  0.2700  0.2425 -0.2744
18217SOL    HW156092   6.903   5.876   6.820  2.7201  0.6553 -1.8604
18217SOL    HW256093   6.869   5.745   6.752  1.2485  0.6587 -1.1716
18218SOL     OW56094   2.607   3.215   1.977  0.1192  0.2777  0.7333
18218SOL    HW156095   2.690   3.186   1.938  0.4245  0.0869  1.5017
18218SOL    HW256096   2.544   3.209   1.906  0.0978 -2.5919  0.8922
18219SOL     OW56097   5.049   7.769   1.584  0.8573 -0.2755  0.0881
18219SOL    HW156098   5.085   7.794   1.669 -0.3144  0.4933  0.3843
18219SOL    HW256099   5.018   7.679   1.596  1.9747 -0.6827  0.0363
18220SOL     OW56100   7.707   0.415   6.722  0.4426  0.4072 -0.3903
18220SOL    HW156101   7.727   0.363   6.645  0.3712 -0.7706  0.3655
18220SOL    HW256102   7.654   0.358   6.777 -0.1464  1.4860  0.2052
18221SOL     OW56103   4.247   6.557  10.622  0.8016 -0.2708 -0.0882
18221SOL    HW156104   4.284   6.644  10.633  2.2826 -0.8355 -0.4323
18221SOL    HW256105   4.314   6.508  10.575 -0.4174 -1.3264 -0.7919
18222SOL     OW56106   7.632   1.523   0.272  0.5850 -0.5989  0.4843
18222SOL    HW156107   7.655   1.570   0.352 -1.0664 -0.6089  1.0200
18222SOL    HW256108   7.647   1.585   0.201  0.3369  0.0459  0.9882
18223SOL     OW56109   7.572   1.591   9.661 -0.0585 -0.0336  0.3366
18223SOL    HW156110   7.610   1.603   9.574  1.3416  0.2865  0.9526
18223SOL    HW256111   7.646   1.566   9.716 -1.0229 -0.8226  1.3223
18224SOL     OW56112   4.775   6.588   0.463 -0.5279  0.1814 -0.2651
18224SOL    HW156113   4.861   6.546   0.455 -0.8701 -0.4468 -0.7982
18224SOL    HW256114   4.759   6.593   0.557 -0.2837 -0.4941 -0.1822
18225SOL     OW56115   7.122   5.363   2.447 -0.0027  0.3587  0.0123
18225SOL    HW156116   7.090   5.447   2.416  1.3323  0.3808 -1.4138
18225SOL    HW256117   7.079   5.298   2.391  1.8042  0.3551 -1.4732
18226SOL     OW56118   5.232   0.779   3.755  0.3544 -0.4103  0.0150
18226SOL    HW156119   5.144   0.752   3.731  0.6540 -1.7557  0.3168
18226SOL    HW256120   5.232   0.780   3.851  0.7129 -0.6494  0.0242
18227SOL     OW56121   3.162   0.850   0.406 -0.1987  0.2343  0.0806
18227SOL    HW156122   3.097   0.816   0.346 -1.0765  0.9841  0.5879
18227SOL    HW256123   3.187   0.774   0.460 -0.2921 -0.1566 -0.4215
18228SOL     OW56124   4.970   1.103   7.799  0.4122  0.0709 -0.0625
18228SOL    HW156125   5.036   1.169   7.819 -0.5104  1.5808 -1.7678
18228SOL    HW256126   4.910   1.146   7.738 -0.9497 -1.9430 -0.2392
18229SOL     OW56127   0.742   4.870  10.825 -0.5864 -0.0567 -0.0059
18229SOL    HW156128   0.677   4.915  10.879  0.1152  0.0154  0.7846
18229SOL    HW256129   0.760   4.788  10.870 -2.5863 -1.6709 -1.9423
18230SOL     OW56130   0.857   5.197   3.956  0.1097  0.3950  0.4498
18230SOL    HW156131   0.801   5.121   3.967  1.0437 -0.3631  0.1241
18230SOL    HW256132   0.880   5.197   3.864  1.7921 -0.1703  0.8328
18231SOL     OW56133   0.663   0.459   1.028  0.2510 -0.2811  0.3183
18231SOL    HW156134   0.634   0.369   1.011 -0.5271  0.1002 -0.4817
18231SOL    HW256135   0.739   0.471   0.971  2.1774 -1.3271  2.5151
18232SOL     OW56136   7.405   6.425   7.064 -0.1983 -0.1754  0.3772
18232SOL    HW156137   7.390   6.507   7.018 -0.5109  1.0336  2.5485
18232SOL    HW256138   7.497   6.404   7.045 -0.3926  0.1259 -0.9844
18233SOL     OW56139   5.504   3.373  10.497  0.2877  0.1412  0.3701
18233SOL    HW156140   5.527   3.285  10.466  0.5376 -0.1484  1.3435
18233SOL    HW256141   5.408   3.377  10.488  0.1383 -0.6610  1.3595
18234SOL     OW56142   7.169   2.147   4.983 -0.1682 -0.7851  0.2304
18234SOL    HW156143   7.184   2.058   5.014  0.3589 -0.0017  2.4094
18234SOL    HW256144   7.076   2.163   5.001  0.1392 -0.3285  1.5118
18235SOL     OW56145   5.835   0.749  10.238 -0.0744  0.2868 -0.0986
18235SOL    HW156146   5.863   0.839  10.222  0.1969  0.1261 -0.5316
18235SOL    HW256147   5.743   0.757  10.266 -0.8905  0.5557 -2.5670
18236SOL     OW56148   1.005   0.496   8.302  0.7309 -0.7098 -0.3131
18236SOL    HW156149   1.069   0.426   8.288  1.4883 -0.0524 -0.2904
18236SOL    HW256150   1.019   0.556   8.229 -0.1624 -0.7696 -0.5368
18237SOL     OW56151   4.260   0.464  10.248 -0.2080 -0.7177  0.6052
18237SOL    HW156152   4.171   0.491  10.225 -0.5157 -1.1510  1.2616
18237SOL    HW256153   4.316   0.514  10.188 -0.9799 -1.9077 -1.2031
18238SOL     OW56154   5.973   3.180   7.263 -0.3790  0.3835  0.5710
18238SOL    HW156155   5.965   3.221   7.177  1.6601 -0.0123  0.1409
18238SOL    HW256156   6.048   3.224   7.304  0.9528 -1.8396  0.6738
18239SOL     OW56157   2.069   3.745   6.431  0.3229  0.6008 -0.7447
18239SOL    HW156158   2.158   3.723   6.458  1.1277  2.3862 -1.7648
18239SOL    HW256159   2.079   3.785   6.345 -1.7918 -1.7753 -2.2354
18240SOL     OW56160   7.888   4.473   0.644 -0.1350 -0.3885 -0.4655
18240SOL    HW156161   7.971   4.464   0.596 -0.3919  0.4481 -1.0853
18240SOL    HW256162   7.902   4.422   0.724  0.4569 -1.4575 -1.2176
18241SOL     OW56163   4.054   7.525   5.151 -0.3395 -0.1931 -0.3547
18241SOL    HW156164   4.117   7.540   5.081 -0.7138  0.3492 -0.5799
18241SOL    HW256165   4.047   7.609   5.197 -0.1516 -0.5246  0.2932
18242SOL     OW56166   2.545   7.006   2.677  0.2223 -0.3443 -0.7151
18242SOL    HW156167   2.519   6.916   2.658  1.7111 -0.9910  0.1200
18242SOL    HW256168   2.621   7.021   2.621  0.8333 -0.1061  0.1502
18243SOL     OW56169   1.035   2.985   5.994  0.5399 -0.0005  0.0225
18243SOL    HW156170   1.063   3.032   6.073 -0.1131  0.9328 -0.2831
18243SOL    HW256171   1.117   2.955   5.954  0.8740 -0.6656  1.1450
18244SOL     OW56172   5.734   7.801   4.977  0.1814  0.2879  0.1723
18244SOL    HW156173   5.709   7.789   4.886 -0.1813  0.1944  0.2842
18244SOL    HW256174   5.821   7.842   4.973  0.3631 -0.1305 -0.2113
18245SOL     OW56175   6.462   0.635   0.908  0.4308  0.3460  0.2802
18245SOL    HW156176   6.401   0.628   0.981 -1.5177  0.3572 -1.2714
18245SOL    HW256177   6.454   0.552   0.861 -0.3823  1.2995 -1.3819
18246SOL     OW56178   4.637   7.569   4.339 -0.2225 -0.2023  0.0123
18246SOL    HW156179   4.695   7.509   4.292  0.0944 -0.1557  0.3501
18246SOL    HW256180   4.647   7.652   4.294 -1.1819 -0.5505 -0.9023
18247SOL     OW56181   2.727   2.541   2.237 -0.4206  0.2114 -0.7635
18247SOL    HW156182   2.648   2.486   2.241  0.7377 -1.4578  1.5337
18247SOL    HW256183   2.724   2.580   2.150 -3.3561 -0.4024 -1.0548
18248SOL     OW56184   3.968   1.637  11.316 -0.1572 -0.3127 -0.1929
18248SOL    HW156185   3.974   1.705  11.383  1.2315 -0.9427  0.3669
18248SOL    HW256186   3.936   1.560  11.364  0.1723 -0.5774 -0.3937
18249SOL     OW56187   7.435   6.139   3.215  0.2484 -0.1030 -0.0065
18249SOL    HW156188   7.474   6.056   3.243  0.7283 -0.7054 -2.2412
18249SOL    HW256189   7.391   6.172   3.293  0.1142 -2.4144  0.9981
18250SOL     OW56190   2.015   4.503   0.694 -0.0496  0.3363  0.4614
18250SOL    HW156191   1.973   4.418   0.686  0.6332  0.1951 -3.6376
18250SOL    HW256192   1.944   4.566   0.678  0.1503  0.3207 -0.5698
18251SOL     OW56193   4.401   4.852   3.398  0.3030  0.7285 -0.7722
18251SOL    HW156194   4.463   4.782   3.420  0.4831  0.8670 -0.8342
18251SOL    HW256195   4.384   4.896   3.481  0.6028  0.9450 -0.8263
18252SOL     OW56196   6.030   3.916   4.677  0.5691 -0.7451 -0.2878
18252SOL    HW156197   5.953   3.908   4.621 -0.2087 -3.5276  1.0212
18252SOL    HW256198   6.003   3.976   4.746 -0.1996 -1.1545 -0.2196
18253SOL     OW56199   2.099   4.939   7.854  0.2444  0.5506  0.0109
18253SOL    HW156200   2.032   4.977   7.797 -0.1751 -0.1775 -0.0025
18253SOL    HW256201   2.093   4.990   7.935  0.1645  0.9550 -0.2476
18254SOL     OW56202   0.968   7.315  10.234 -0.1101  0.3911  0.5211
18254SOL    HW156203   0.901   7.273  10.180 -0.8389  2.5287 -0.3549
18254SOL    HW256204   0.920   7.346  10.311 -0.2701  2.1711 -0.2368
18255SOL     OW56205   2.106   7.495   3.375  0.8019 -0.1129 -0.2919
18255SOL    HW156206   2.149   7.411   3.360 -0.3779 -0.7701 -0.0923
18255SOL    HW256207   2.158   7.558   3.325  1.5031 -1.0098 -0.7187
18256SOL     OW56208   4.140   4.532   6.285  0.0268 -0.2081 -0.2482
18256SOL    HW156209   4.146   4.566   6.375  1.1407 -3.1872  0.9355
18256SOL    HW256210   4.232   4.521   6.258 -0.3034 -0.2731 -1.4044
18257SOL     OW56211   1.583   7.701   6.747 -0.2853 -0.7333  0.1186
18257SOL    HW156212   1.586   7.739   6.835  0.3090 -0.4237 -0.0327
18257SOL    HW256213   1.504   7.739   6.708 -0.8319 -1.2579  0.6844
18258SOL     OW56214   7.063   0.234   5.413 -0.2679 -0.1155 -0.0723
18258SOL    HW156215   6.974   0.264   5.394  0.8038  3.0570 -0.6863
18258SOL    HW256216   7.051   0.153   5.462 -3.4953  0.4815  0.3370
18259SOL     OW56217   5.431   5.084  11.176  0.4119 -0.0192  0.7113
18259SOL    HW156218   5.402   5.162  11.224 -2.0944 -0.3623 -0.0492
18259SOL    HW256219   5.470   5.118  11.095 -2.1758  0.5641 -0.4139
18260SOL     OW56220   5.161   2.786   6.241  0.3121  0.0582  0.1954
18260SOL    HW156221   5.169   2.864   6.295  1.7408 -0.8942  1.4438
18260SOL    HW256222   5.229   2.797   6.174  2.3494 -1.2412  1.9347
18261SOL     OW56223   2.802   3.639   1.678 -0.3259  0.5288  0.5137
18261SOL    HW156224   2.713   3.632   1.643  0.5368  0.6192 -1.9553
18261SOL    HW256225   2.823   3.732   1.669  0.7242  0.1825 -1.0040
18262SOL     OW56226   7.428   0.695   9.329  0.4522  0.3887  0.3273
18262SOL    HW156227   7.492   0.701   9.258  0.5235  0.7864  0.4204
18262SOL    HW256228   7.343   0.704   9.285  0.4848  0.4169  0.2694
18263SOL     OW56229   7.583   7.495  11.112  0.1184 -0.1015  0.0589
18263SOL    HW156230   7.638   7.554  11.163  0.8436  0.2351 -1.0718
18263SOL    HW256231   7.573   7.540  11.027 -0.2498 -1.0809 -0.4259
18264SOL     OW56232   0.390   6.320  10.937 -0.1191 -0.2451 -0.0506
18264SOL    HW156233   0.356   6.305  11.026  1.2185 -2.0123  0.2163
18264SOL    HW256234   0.419   6.234  10.907  1.1620  0.6206 -1.4869
18265SOL     OW56235   1.684   5.486  11.998 -0.7512 -0.1945  0.0171
18265SOL    HW156236   1.644   5.452  11.918  1.9012  2.5223 -2.7328
18265SOL    HW256237   1.709   5.576  11.976  4.8332 -0.8706  1.9786
18266SOL     OW56238   1.894   2.746   9.855 -0.2935  0.2928 -0.1611
18266SOL    HW156239   1.836   2.694   9.911 -0.1248  0.8508  0.5421
18266SOL    HW256240   1.976   2.697   9.854 -0.5801 -0.2012 -0.6950
18267SOL     OW56241   7.442   2.533   7.710 -0.3539  0.1825  0.1734
18267SOL    HW156242   7.360   2.571   7.678 -0.4812  1.0723  1.5004
18267SOL    HW256243   7.461   2.581   7.790  0.5418 -1.2351  0.8409
18268SOL     OW56244   1.475   1.698   5.949  0.0018 -0.2190 -0.5970
18268SOL    HW156245   1.559   1.665   5.979  0.1038  0.5068 -0.0646
18268SOL    HW256246   1.426   1.620   5.923  1.3918 -0.5435 -2.3980
18269SOL     OW56247   7.189   0.277   5.165 -0.1261 -0.2399 -0.3576
18269SOL    HW156248   7.146   0.271   5.250  0.0262  0.8893 -0.1959
18269SOL    HW256249   7.118   0.296   5.104 -0.2104 -0.8794 -0.4622
18270SOL     OW56250   6.822   3.824   5.597 -0.4983  0.4964  0.2905
18270SOL    HW156251   6.862   3.794   5.679 -0.4493 -1.6153 -0.4584
18270SOL    HW256252   6.886   3.801   5.530 -1.4670  0.2561 -0.5657
18271SOL     OW56253   3.186   5.733  10.474 -0.4055 -0.0542  0.1726
18271SOL    HW156254   3.201   5.638  10.474 -0.8781 -0.1319 -0.4396
18271SOL    HW256255   3.091   5.742  10.484 -0.3177  0.3716  0.7307
18272SOL     OW56256   6.566   3.145   9.987  0.2144 -0.4874  0.6444
18272SOL    HW156257   6.557   3.081  10.057  1.0854 -1.5538 -0.1623
18272SOL    HW256258   6.487   3.135   9.935  0.7445 -1.6325 -0.0034
18273SOL     OW56259   1.756   0.558   3.362  0.3051  0.2728  0.3679
18273SOL    HW156260   1.776   0.650   3.347  0.5981  0.1617  0.0483
18273SOL    HW256261   1.715   0.529   3.280 -1.8443  0.6627  1.2302
18274SOL     OW56262   4.351   4.853   0.797 -0.0574 -0.0278  0.0124
18274SOL    HW156263   4.337   4.779   0.857 -1.0973 -0.2432 -0.4682
18274SOL    HW256264   4.435   4.891   0.824  0.2494 -1.0803  0.5810
18275SOL     OW56265   2.263   0.550   8.051  0.0170  0.7425 -0.4813
18275SOL    HW156266   2.273   0.605   7.974  1.9296  1.8324  0.4871
18275SOL    HW256267   2.312   0.470   8.031 -1.1548  0.1498 -1.1254
18276SOL     OW56268   4.678   0.340   2.316 -0.0182  0.3041 -0.1120
18276SOL    HW156269   4.721   0.257   2.296 -1.3047 -0.3824 -0.1173
18276SOL    HW256270   4.729   0.377   2.388  2.3462  0.9628 -1.9803
18277SOL     OW56271   6.614   2.914   5.021  0.1837 -0.3853  0.5172
18277SOL    HW156272   6.639   2.958   4.940 -0.2664  0.2131  0.6914
18277SOL    HW256273   6.555   2.844   4.993  2.1150 -1.9130  0.0909
18278SOL     OW56274   5.541   4.297   8.121  0.1590  0.0263  0.4650
18278SOL    HW156275   5.479   4.319   8.190 -2.1975  0.8435 -1.7338
18278SOL    HW256276   5.512   4.212   8.088  0.7713 -0.0165  0.0026
18279SOL     OW56277   2.646   7.325   3.885  0.1467 -0.3702 -0.1676
18279SOL    HW156278   2.679   7.242   3.920 -1.0498 -1.1267 -0.7499
18279SOL    HW256279   2.724   7.378   3.870  0.9335 -1.3865  0.2303
18280SOL     OW56280   7.623   2.941  10.950 -0.0772  0.0909 -0.4246
18280SOL    HW156281   7.533   2.963  10.926 -0.5400 -2.6689 -1.5134
18280SOL    HW256282   7.667   2.925  10.867  2.0129  3.0939 -0.0477
18281SOL     OW56283   4.954   0.655   4.915 -0.4216  0.4713 -0.6336
18281SOL    HW156284   4.939   0.569   4.955  0.8567  0.8382  0.7349
18281SOL    HW256285   4.964   0.714   4.989  1.2452  1.3393 -1.4932
18282SOL     OW56286   1.335   7.772  10.732 -0.3528  0.3676 -0.3320
18282SOL    HW156287   1.367   7.812  10.813 -0.9112  1.2335 -0.5226
18282SOL    HW256288   1.373   7.826  10.662 -0.2989 -0.0550 -0.6356
18283SOL     OW56289   3.694   1.313   0.169 -0.2329  0.0228  0.1955
18283SOL    HW156290   3.600   1.299   0.172 -0.7033  2.4238 -1.0291
18283SOL    HW256291   3.727   1.242   0.113 -1.6040  0.2819 -0.9989
18284SOL     OW56292   1.808   3.167   3.089 -0.5224  0.8194 -0.2618
18284SOL    HW156293   1.855   3.219   3.154  0.0757 -0.6542  0.5330
18284SOL    HW256294   1.746   3.114   3.140 -0.9362  0.5619 -1.0145
18285SOL     OW56295   5.994   4.502   6.404  0.0135 -0.1692 -0.3499
18285SOL    HW156296   6.001   4.482   6.310 -0.4373 -2.1936  0.0029
18285SOL    HW256297   5.922   4.448   6.435  0.0761  0.5624  1.1649
18286SOL     OW56298   2.056   1.399   3.816 -0.0864 -0.2294 -1.0604
18286SOL    HW156299   2.046   1.494   3.810  2.0685  0.0804 -0.4252
18286SOL    HW256300   1.989   1.365   3.757 -2.5371  1.5524  0.4733
18287SOL     OW56301   6.584   0.738   2.315  0.1359 -0.1741  0.2967
18287SOL    HW156302   6.504   0.786   2.338  0.7578  0.8374  0.4171
18287SOL    HW256303   6.581   0.731   2.220 -1.0328 -1.8523  0.4080
18288SOL     OW56304   4.062   5.700   1.016 -0.2591 -0.1100  0.1988
18288SOL    HW156305   4.152   5.684   1.046  0.2074 -1.9838 -1.8932
18288SOL    HW256306   4.070   5.772   0.954 -0.2829  0.0573  0.3900
18289SOL     OW56307   0.825   5.776   6.265 -0.2909 -0.2194 -0.0973
18289SOL    HW156308   0.736   5.740   6.258 -0.6152  0.2109  1.3961
18289SOL    HW256309   0.825   5.849   6.203 -1.1652  0.1196  0.2801
18290SOL     OW56310   2.017   3.582   6.817 -0.4931 -0.1347 -0.5628
18290SOL    HW156311   2.101   3.597   6.861  1.2884 -0.7423 -3.5059
18290SOL    HW256312   1.969   3.526   6.878  0.0855  2.3157  2.3764
18291SOL     OW56313   1.118   0.485   4.830  0.3747 -0.0629  0.4696
18291SOL    HW156314   1.025   0.464   4.824  0.4586 -0.6530  1.1039
18291SOL    HW256315   1.162   0.400   4.833  0.7871  0.1690  2.1287
18292SOL     OW56316   5.050   6.499   1.834 -0.5044  0.2955  0.0477
18292SOL    HW156317   5.145   6.489   1.828 -0.6212 -1.7519  0.8571
18292SOL    HW256318   5.031   6.579   1.784  1.4518 -0.1499 -1.5269
18293SOL     OW56319   3.480   0.243  11.998 -0.0705 -0.3548 -0.1778
18293SOL    HW156320   3.440   0.234  11.912  0.8101 -2.4354 -0.4139
18293SOL    HW256321   3.543   0.315  11.988  2.3001 -2.5133 -2.2598
18294SOL     OW56322   0.893   4.196   3.965 -0.3375  0.2627 -0.2051
18294SOL    HW156323   0.856   4.112   3.935  0.0668  0.1773 -0.4829
18294SOL    HW256324   0.849   4.214   4.048 -0.9692  0.1451 -0.5097
18295SOL     OW56325   2.677   5.986   5.515 -0.3608  0.2984 -0.1249
18295SOL    HW156326   2.704   5.894   5.503  0.6290  0.4618  0.7633
18295SOL    HW256327   2.648   5.991   5.606 -0.4940  0.8603 -0.1943
18296SOL     OW56328   6.819   3.247   2.529  0.4671  0.2333 -0.0494
18296SOL    HW156329   6.894   3.306   2.526  0.0256  0.8637  0.8292
18296SOL    HW256330   6.746   3.298   2.495  0.6851 -0.8526 -2.3267
18297SOL     OW56331   7.556   2.597  10.242  0.7040  0.1256 -0.5104
18297SOL    HW156332   7.539   2.613  10.335 -0.5058 -0.9760 -0.5170
18297SOL    HW256333   7.626   2.533  10.242  0.8065  0.2349 -0.3628
18298SOL     OW56334   0.405   2.284   7.490 -0.3792  0.5265 -0.0080
18298SOL    HW156335   0.385   2.290   7.583  1.1027 -2.6217  0.6342
18298SOL    HW256336   0.324   2.251   7.450  0.3744 -3.2157  1.1296
18299SOL     OW56337   4.315   7.123   3.730 -0.1844  0.2649 -0.4551
18299SOL    HW156338   4.393   7.090   3.775  1.7128  0.2066 -3.4702
18299SOL    HW256339   4.263   7.044   3.711  1.1056 -0.2548 -1.9813
18300SOL     OW56340   0.173   5.408   1.609 -0.0839  0.1555  0.2831
18300SOL    HW156341   0.188   5.479   1.671  0.1332  0.5822 -0.2497
18300SOL    HW256342   0.199   5.444   1.524  1.1126 -0.9088  0.1525
18301SOL     OW56343   5.561   3.829   2.613 -0.0201 -0.2059  0.2509
18301SOL    HW156344   5.530   3.825   2.703  0.5529 -1.2760  0.4093
18301SOL    HW256345   5.629   3.897   2.613  0.5061 -0.7255  0.7924
18302SOL     OW56346   1.348   7.612   5.214  0.0563 -0.5099  0.5713
18302SOL    HW156347   1.301   7.530   5.232 -1.7655  0.6203  1.2775
18302SOL    HW256348   1.356   7.614   5.119 -1.6577 -0.6089  0.3979
18303SOL     OW56349   3.321   2.012   7.269  0.2986  0.1758  0.2217
18303SOL    HW156350   3.386   1.946   7.243  1.4055  1.3347 -0.0723
18303SOL    HW256351   3.354   2.047   7.352 -0.6080 -0.0642  0.6926
18304SOL     OW56352   5.955   3.831   1.717 -0.0887  0.2219 -0.0051
18304SOL    HW156353   5.999   3.753   1.747  1.0612  0.7985 -0.1374
18304SOL    HW256354   5.987   3.901   1.774 -0.0537  0.8202 -0.7316
18305SOL     OW56355   4.144   3.490   1.174 -0.0989 -0.4978  0.1878
18305SOL    HW156356   4.147   3.402   1.137  0.6831 -0.6673  0.6187
18305SOL    HW256357   4.231   3.525   1.158 -0.6465  0.5001 -0.6753
18306SOL     OW56358   5.690   7.119   0.207  0.2980  0.1949  0.2045
18306SOL    HW156359   5.653   7.171   0.279 -0.1475 -2.5957  2.1674
18306SOL    HW256360   5.638   7.038   0.207  0.5076 -0.0849 -3.1215
18307SOL     OW56361   4.598   7.180  11.578 -0.0347  0.2071  0.0816
18307SOL    HW156362   4.515   7.218  11.547  0.5557  1.8343  0.4311
18307SOL    HW256363   4.661   7.199  11.508  0.3162  0.0187  0.3441
18308SOL     OW56364   0.619   5.888  10.152 -0.0959 -0.3979 -0.1442
18308SOL    HW156365   0.533   5.882  10.192 -0.5191  0.6939 -0.8412
18308SOL    HW256366   0.679   5.854  10.218 -0.8632  0.5121  1.0599
18309SOL     OW56367   3.407   7.940   5.408  0.1015 -0.0620  0.3213
18309SOL    HW156368   3.473   7.871   5.400  0.4284  0.0828  1.5906
18309SOL    HW256369   3.455   8.021   5.393 -0.3427 -0.0893 -1.4822
18310SOL     OW56370   7.288   2.211   6.479  0.4996 -0.0353  0.6180
18310SOL    HW156371   7.263   2.200   6.387  0.1570 -1.9270  0.8942
18310SOL    HW256372   7.380   2.187   6.481  0.5143  0.0373  0.7692
18311SOL     OW56373   1.194   4.708   0.088  0.1580 -0.5609 -0.2687
18311SOL    HW156374   1.203   4.778   0.153  0.2171 -0.2370 -0.6257
18311SOL    HW256375   1.280   4.666   0.086  0.4843  0.1131 -0.9131
18312SOL     OW56376   4.342   4.819   6.364  0.1805  0.2589  0.6075
18312SOL    HW156377   4.263   4.767   6.355  0.3714  0.0983 -0.2302
18312SOL    HW256378   4.344   4.846   6.456 -1.4630  1.2748  0.3810
18313SOL     OW56379   3.325   3.518   7.192  0.6147  1.0003  0.0061
18313SOL    HW156380   3.393   3.525   7.125  0.3703 -1.3967 -0.5925
18313SOL    HW256381   3.367   3.469   7.263  0.3601  2.0578  0.9112
18314SOL     OW56382   0.272   6.071   6.207  0.1759  0.7554  0.4364
18314SOL    HW156383   0.323   6.079   6.287  0.1603 -0.7675  0.6365
18314SOL    HW256384   0.327   6.021   6.148 -0.1853  1.0634 -0.1723
18315SOL     OW56385   5.376   5.755   4.612  0.2974 -0.0042  0.8108
18315SOL    HW156386   5.321   5.773   4.688  0.2862  0.6743  0.6496
18315SOL    HW256387   5.464   5.744   4.648  0.2099 -0.1856  0.9716
18316SOL     OW56388   2.217   4.419   7.568  0.0455 -0.5371 -0.5490
18316SOL    HW156389   2.295   4.468   7.593 -0.5823  0.5073 -0.5902
18316SOL    HW256390   2.231   4.400   7.475 -0.1161  0.3589 -0.7620
18317SOL     OW56391   2.598   0.057   4.462  0.2657  0.3414  0.1221
18317SOL    HW156392   2.619   0.010   4.543  0.9069  1.6254  0.7459
18317SOL    HW256393   2.636   0.144   4.475  1.0138  0.3726 -1.8615
18318SOL     OW56394   2.485   0.126   2.571  0.1126 -0.3952  0.1027
18318SOL    HW156395   2.473   0.216   2.602 -0.3740 -1.1720  2.3665
18318SOL    HW256396   2.555   0.133   2.506  1.3047  1.4135  1.4628
18319SOL     OW56397   3.384   1.998   2.688 -0.2255  0.0270  0.1095
18319SOL    HW156398   3.478   2.018   2.683 -0.1913 -0.2041 -0.2161
18319SOL    HW256399   3.356   1.993   2.597  0.1342 -2.9911  0.0560
18320SOL     OW56400   6.724   2.376   5.984  0.1496 -0.1684 -0.0165
18320SOL    HW156401   6.778   2.306   5.947  0.8755  0.0144  0.6678
18320SOL    HW256402   6.759   2.390   6.072 -0.0321  1.0123 -0.1104
18321SOL     OW56403   7.209   5.550   5.940 -0.0509  0.1664  0.0105
18321SOL    HW156404   7.227   5.456   5.950  2.5011  0.3192 -2.0191
18321SOL    HW256405   7.238   5.589   6.023  0.8371 -0.6452  0.1065
18322SOL     OW56406   5.352   6.019   6.045  0.0369  0.0243 -0.0007
18322SOL    HW156407   5.433   6.001   5.998 -0.0845  3.3132 -1.7622
18322SOL    HW256408   5.284   5.976   5.994  0.2605  0.8696 -1.0402
18323SOL     OW56409   0.874   3.554   7.126  0.1436  0.0874 -0.4192
18323SOL    HW156410   0.869   3.573   7.032  1.5078 -2.8620 -1.2036
18323SOL    HW256411   0.934   3.480   7.132 -1.9211 -1.5570  2.5289
18324SOL     OW56412   7.463   4.239  10.623  0.4908  0.0018 -0.4303
18324SOL    HW156413   7.412   4.305  10.576  2.0363  1.4366 -0.1625
18324SOL    HW256414   7.504   4.186  10.554 -1.2538 -1.1446 -0.6473
18325SOL     OW56415   4.636   0.909   5.916 -0.0514  0.0520  0.4851
18325SOL    HW156416   4.708   0.885   5.975  0.1909  0.3957  0.3302
18325SOL    HW256417   4.557   0.879   5.962  0.1313  0.3551  1.0037
18326SOL     OW56418   5.660   6.893   3.696  0.4858 -0.2072  0.2897
18326SOL    HW156419   5.732   6.905   3.758 -0.9737 -1.4697  2.3448
18326SOL    HW256420   5.619   6.811   3.722 -1.1790  0.0152 -1.3881
18327SOL     OW56421   0.823   1.880   1.395  0.4261  0.1973  0.1924
18327SOL    HW156422   0.892   1.850   1.337 -1.3215  0.7863 -2.3876
18327SOL    HW256423   0.744   1.835   1.364 -0.9981  2.2393  0.6249
18328SOL     OW56424   7.814   5.610  10.028  0.5782 -0.3279 -0.3238
18328SOL    HW156425   7.855   5.665   9.962 -0.0976  1.5166  0.7024
18328SOL    HW256426   7.839   5.650  10.111 -0.3295 -1.3104  0.4500
18329SOL     OW56427   7.287   1.079   1.340 -0.6389  0.0838 -0.1721
18329SOL    HW156428   7.378   1.108   1.335 -1.1911  2.2392  0.9969
18329SOL    HW256429   7.265   1.085   1.433 -1.2907 -2.8833 -0.0174
18330SOL     OW56430   5.535   7.121  11.472 -0.6688  0.0481 -0.7920
18330SOL    HW156431   5.495   7.208  11.465 -0.2194  0.6158  2.1984
18330SOL    HW256432   5.629   7.138  11.471 -0.5629 -0.5374 -1.2325
18331SOL     OW56433   3.057   5.480  10.916 -0.0922 -0.0317  0.5434
18331SOL    HW156434   2.998   5.490  10.991 -0.5344  0.8336  0.0995
18331SOL    HW256435   3.070   5.569  10.884  0.0661 -0.3895 -0.4191
18332SOL     OW56436   5.561   5.211   7.367 -0.1380 -0.1269  0.0571
18332SOL    HW156437   5.501   5.206   7.442 -0.7710  0.5983 -0.3943
18332SOL    HW256438   5.576   5.119   7.343 -0.7060 -0.3295  0.4538
18333SOL     OW56439   6.136   3.839   2.248  0.1823  0.2790  0.0438
18333SOL    HW156440   6.100   3.808   2.165  1.4261  1.6070 -1.0500
18333SOL    HW256441   6.108   3.930   2.254 -0.1060  0.1373  1.2455
18334SOL     OW56442   2.232   5.775   2.553 -0.2668 -0.4499 -0.3704
18334SOL    HW156443   2.204   5.842   2.615  1.1865 -0.3402  0.2168
18334SOL    HW256444   2.204   5.807   2.468  1.7677  1.7763 -0.3179
18335SOL     OW56445   2.714   4.343   9.259 -0.0982 -0.0425 -0.8881
18335SOL    HW156446   2.634   4.339   9.206 -0.3048  0.1976 -0.5976
18335SOL    HW256447   2.703   4.274   9.325  0.3254 -0.5918 -1.3848
18336SOL     OW56448   1.424   7.003   8.444 -0.1967 -0.4520  0.1667
18336SOL    HW156449   1.423   7.033   8.353  1.2229 -0.6867  0.0608
18336SOL    HW256450   1.474   6.921   8.442  0.2913 -0.1971  1.2343
18337SOL     OW56451   5.732   1.962  11.263  0.7792 -0.8247 -0.1925
18337SOL    HW156452   5.669   2.003  11.204 -0.8990  0.7756  2.5108
18337SOL    HW256453   5.781   2.036  11.300 -1.3880 -1.1173  3.7853
18338SOL     OW56454   3.145   2.840   5.077  0.5127  0.0799  0.2062
18338SOL    HW156455   3.158   2.935   5.084 -0.5836  0.2058  0.6944
18338SOL    HW256456   3.229   2.802   5.105  0.8125  0.8979  0.4401
18339SOL     OW56457   3.219   1.063   1.326  0.2065 -0.2297 -0.5398
18339SOL    HW156458   3.192   1.037   1.414 -0.3089 -0.1338 -0.6649
18339SOL    HW256459   3.175   1.001   1.267 -2.7808  2.0464 -0.9879
18340SOL     OW56460   1.504   3.388  10.438  0.4860 -0.5775 -0.7048
18340SOL    HW156461   1.479   3.296  10.425 -0.6871 -0.6132  1.3247
18340SOL    HW256462   1.525   3.420  10.351 -1.5050 -2.0919 -1.8202
18341SOL     OW56463   5.990   5.245   4.323 -0.0519  0.4828  0.0958
18341SOL    HW156464   5.928   5.188   4.368 -0.7642 -0.3377 -1.8478
18341SOL    HW256465   5.937   5.318   4.292  0.4390  1.0495  0.5617
18342SOL     OW56466   0.620   0.846   2.026 -0.1079  0.1407 -0.2486
18342SOL    HW156467   0.592   0.804   2.107  0.7730  0.3633  0.1846
18342SOL    HW256468   0.549   0.905   2.003 -1.1638 -1.2142 -0.6108
18343SOL     OW56469   5.434   5.114  10.883 -0.3704 -0.1138  0.2139
18343SOL    HW156470   5.445   5.035  10.831 -0.8158 -1.2740  1.8170
18343SOL    HW256471   5.475   5.183  10.830  0.2878 -1.4438 -1.0865
18344SOL     OW56472   5.803   7.528   9.618 -0.1015 -0.0372  0.1350
18344SOL    HW156473   5.880   7.585   9.624 -0.6380  0.6727  0.3481
18344SOL    HW256474   5.754   7.546   9.698 -0.6896 -0.1979 -0.1866
18345SOL     OW56475   5.091   3.186  11.088 -0.0641  0.2379  0.0279
18345SOL    HW156476   5.042   3.260  11.125  0.1212  0.4894 -0.2260
18345SOL    HW256477   5.172   3.225  11.055 -0.4789  0.1305 -1.1808
18346SOL     OW56478   0.432   0.104   7.470  0.4147  0.6709  0.1532
18346SOL    HW156479   0.462   0.073   7.555  0.0184  2.3418  0.9360
18346SOL    HW256480   0.478   0.187   7.457 -1.1050  1.4883 -0.2655
18347SOL     OW56481   6.496   1.599  10.804 -0.3506 -0.3470 -0.0793
18347SOL    HW156482   6.506   1.667  10.738 -1.0900 -0.2461 -0.0907
18347SOL    HW256483   6.409   1.612  10.840  0.4158  0.2505  1.6628
18348SOL     OW56484   0.623   1.652  11.592 -0.0218  0.4179 -0.5923
18348SOL    HW156485   0.530   1.677  11.598 -0.0939 -0.1040  1.5067
18348SOL    HW256486   0.660   1.713  11.528 -1.8504  0.4713 -1.6835
18349SOL     OW56487   3.094   0.862   4.792  0.4344  0.0297 -0.3173
18349SOL    HW156488   3.075   0.928   4.725 -0.6301 -0.0411 -0.1062
18349SOL    HW256489   3.113   0.783   4.741 -0.9898 -0.1854 -0.5620
18350SOL     OW56490   6.073   2.053   9.257  0.0101 -0.4601 -0.4634
18350SOL    HW156491   6.148   2.003   9.224  1.6475  1.7910 -0.3418
18350SOL    HW256492   6.075   2.040   9.352  0.1118 -0.5742 -0.4812
18351SOL     OW56493   1.195   6.167   1.406 -0.4046 -0.7053 -0.3631
18351SOL    HW156494   1.208   6.084   1.361 -0.8248 -0.5834 -0.7212
18351SOL    HW256495   1.102   6.186   1.395 -0.1483  0.2649 -1.1091
18352SOL     OW56496   4.309   5.345   1.413  0.3778 -0.1280  0.2304
18352SOL    HW156497   4.312   5.438   1.436  1.6187 -0.0269 -0.2809
18352SOL    HW256498   4.230   5.312   1.457 -1.3802  1.6387 -1.3935
18353SOL     OW56499   1.075   3.133   3.829  0.1013 -0.6793  0.2244
18353SOL    HW156500   1.027   3.112   3.749 -1.1613 -1.0010  1.0284
18353SOL    HW256501   1.079   3.229   3.830 -0.5443 -0.6457  0.1420
18354SOL     OW56502   6.790   7.426   0.491 -0.3053 -0.1194 -0.0209
18354SOL    HW156503   6.775   7.339   0.529  0.4990 -0.0770  0.4111
18354SOL    HW256504   6.811   7.481   0.567  1.0863  0.0253 -0.4820
18355SOL     OW56505   5.777   2.062   3.969  0.0581 -0.8570 -0.0858
18355SOL    HW156506   5.787   2.151   3.936 -1.0498  0.4812  2.7659
18355SOL    HW256507   5.698   2.029   3.925 -2.1414  1.3318  1.8881
18356SOL     OW56508   0.022   5.395   0.139 -0.2778  0.4364  0.0056
18356SOL    HW156509  -0.035   5.385   0.215 -0.2185 -0.3090 -0.0390
18356SOL    HW256510  -0.005   5.477   0.099 -0.7419  0.5137  0.4749
18357SOL     OW56511   1.136   7.864   4.093  0.1004  0.3080  0.2458
18357SOL    HW156512   1.178   7.948   4.106 -0.7833  0.5336  1.8680
18357SOL    HW256513   1.053   7.871   4.140 -0.7327 -0.9002 -0.9694
18358SOL     OW56514   3.077   0.272   3.786  0.0636 -0.0187 -0.1966
18358SOL    HW156515   3.130   0.343   3.748  2.1480 -0.6800  1.2859
18358SOL    HW256516   3.131   0.194   3.776 -1.4243 -1.0847 -0.1853
18359SOL     OW56517   3.934   2.055   2.881 -0.0675  0.3354 -0.2269
18359SOL    HW156518   4.028   2.074   2.882 -0.2186  1.0628  0.2280
18359SOL    HW256519   3.925   1.976   2.934  0.2367  0.5110  0.0853
18360SOL     OW56520   1.034   5.518   8.297 -0.0727 -0.2321  0.4480
18360SOL    HW156521   1.043   5.428   8.328 -0.3096 -0.4163 -0.0086
18360SOL    HW256522   0.940   5.530   8.284 -0.0126 -0.0394  0.1693
18361SOL     OW56523   7.738   2.365  10.631 -0.2387 -0.2777 -0.2202
18361SOL    HW156524   7.717   2.456  10.652  0.9244 -0.2468  1.0249
18361SOL    HW256525   7.708   2.316  10.708 -0.6823 -0.9183 -0.7994
18362SOL     OW56526   5.940   0.624   5.429 -0.1440 -0.2412  0.1833
18362SOL    HW156527   5.948   0.653   5.520 -0.0808 -1.9359  0.7513
18362SOL    HW256528   5.866   0.673   5.395  0.2488  0.9223  0.9295
18363SOL     OW56529   2.468   6.336   5.914 -0.2314 -0.1374 -0.2077
18363SOL    HW156530   2.486   6.294   5.829 -0.8578  1.7384 -1.3234
18363SOL    HW256531   2.376   6.317   5.931 -0.2685  0.0029 -0.2512
18364SOL     OW56532   4.863   6.855  10.235  0.0289  0.0251 -0.2935
18364SOL    HW156533   4.795   6.793  10.260  2.0301 -3.3439 -2.5201
18364SOL    HW256534   4.865   6.852  10.140  1.7312  1.8677 -0.3929
18365SOL     OW56535   4.635   2.543  10.571  0.4488 -0.7002 -0.2565
18365SOL    HW156536   4.713   2.517  10.522  1.2104 -0.8425  0.9798
18365SOL    HW256537   4.668   2.597  10.642 -0.7413  0.4318 -0.5339
18366SOL     OW56538   4.698   0.193   8.981 -0.5333 -0.3273 -0.3586
18366SOL    HW156539   4.616   0.213   9.025 -0.7124 -1.1681 -0.2914
18366SOL    HW256540   4.725   0.109   9.018 -0.1015 -0.4899 -1.0217
18367SOL     OW56541   3.841   0.514  10.945  0.3141  0.2147 -0.4331
18367SOL    HW156542   3.850   0.420  10.928  2.9208  0.4827 -0.9776
18367SOL    HW256543   3.751   0.535  10.919 -0.1320 -1.9989 -0.8861
18368SOL     OW56544   7.368   5.008   6.706  0.2157 -0.6775 -0.1519
18368SOL    HW156545   7.402   4.926   6.671  0.5460 -1.1798  1.2937
18368SOL    HW256546   7.286   4.984   6.748 -1.0641  0.2143 -1.9901
18369SOL     OW56547   2.218   6.438  10.007  0.3933  0.4894  0.3651
18369SOL    HW156548   2.196   6.528  10.032 -0.9173  0.4414 -0.4985
18369SOL    HW256549   2.141   6.387  10.033  0.1984 -0.0174 -1.0960
18370SOL     OW56550   7.106   3.215   2.131  0.3791  0.6728  0.0115
18370SOL    HW156551   7.156   3.231   2.211  0.3161 -0.6895  0.3639
18370SOL    HW256552   7.093   3.120   2.130 -2.4429  0.9667  0.0930
18371SOL     OW56553   4.986   6.098  11.917  0.4710 -0.2041  0.1444
18371SOL    HW156554   4.938   6.060  11.843 -0.9884 -0.4427  1.1790
18371SOL    HW256555   5.008   6.023  11.972  1.0789  0.0383  0.2459
18372SOL     OW56556   5.852   6.606   1.324  0.2919  0.5832 -0.0154
18372SOL    HW156557   5.789   6.561   1.380  0.3274 -0.1591 -0.5458
18372SOL    HW256558   5.845   6.698   1.348  1.7322  0.1045  2.6293
18373SOL     OW56559   5.706   0.298   9.659 -0.2208  0.0065  0.0172
18373SOL    HW156560   5.797   0.273   9.644  0.3701  2.2935 -0.6052
18373SOL    HW256561   5.668   0.301   9.571 -0.5302  0.3168  0.1612
18374SOL     OW56562   3.372   6.564   4.862 -0.2732 -0.0848  0.2332
18374SOL    HW156563   3.391   6.584   4.770  1.3283 -0.5661  0.4138
18374SOL    HW256564   3.294   6.614   4.882 -0.3973  0.3779 -1.2759
18375SOL     OW56565   7.770   2.734   9.061 -0.2209 -0.3682  0.5506
18375SOL    HW156566   7.836   2.788   9.105 -0.3540  1.5332 -1.3873
18375SOL    HW256567   7.821   2.676   9.005 -0.1446 -0.0119  0.2481
18376SOL     OW56568   5.214   4.461  11.479 -0.2842 -0.5140  0.0275
18376SOL    HW156569   5.263   4.380  11.465 -0.3186 -1.3252  3.6760
18376SOL    HW256570   5.280   4.530  11.483 -0.1380 -0.5112 -1.6839
18377SOL     OW56571   5.452   3.529   1.184 -0.4752  1.0881  0.0456
18377SOL    HW156572   5.419   3.539   1.094  0.3227  1.5253 -0.2066
18377SOL    HW256573   5.515   3.457   1.178 -0.5179  1.0308  0.2843
18378SOL     OW56574   5.327   3.144   5.179  0.1834 -0.0676  0.3271
18378SOL    HW156575   5.312   3.074   5.115 -0.5662  0.4619 -0.0847
18378SOL    HW256576   5.321   3.225   5.128  1.7661  0.2946  0.6512
18379SOL     OW56577   7.725   1.899  11.430 -0.1926 -0.0718  0.1346
18379SOL    HW156578   7.656   1.881  11.493 -0.9022  3.2568  0.4640
18379SOL    HW256579   7.680   1.939  11.356  0.9397 -1.7076 -1.5452
18380SOL     OW56580   0.712   5.241  10.059  0.0102 -0.1843 -0.1343
18380SOL    HW156581   0.743   5.298  10.130 -0.9176  0.8396 -0.5245
18380SOL    HW256582   0.621   5.224  10.081 -0.0868 -0.4379 -0.7284
18381SOL     OW56583   4.000   3.609   7.851 -0.8226 -0.2776 -0.1465
18381SOL    HW156584   4.024   3.516   7.851 -0.5358 -0.2129  0.9175
18381SOL    HW256585   3.986   3.629   7.758  0.8542 -0.9440 -0.5917
18382SOL     OW56586   5.973   5.366   0.036 -0.5742  0.7291  0.2756
18382SOL    HW156587   5.953   5.298   0.100  0.7980 -0.4468 -0.4791
18382SOL    HW256588   6.069   5.364   0.029 -0.6512  1.1943 -1.3944
18383SOL     OW56589   1.658   3.377  12.364 -0.2720  0.5154  0.6014
18383SOL    HW156590   1.725   3.397  12.299 -1.0328 -0.2751 -0.4453
18383SOL    HW256591   1.576   3.396  12.320 -1.0849 -3.8634 -0.2435
18384SOL     OW56592   2.139   2.831   6.004 -0.2316 -0.2426  0.3764
18384SOL    HW156593   2.213   2.770   6.003 -1.5012 -1.8528  0.9734
18384SOL    HW256594   2.074   2.791   5.946 -1.1214  0.5213  0.8291
18385SOL     OW56595   5.106   4.967   1.072 -0.1256 -0.8916  0.4540
18385SOL    HW156596   5.180   5.027   1.083 -1.6461  0.7450  2.5087
18385SOL    HW256597   5.146   4.880   1.073  1.7807 -0.0757  1.8442
18386SOL     OW56598   0.902   6.972  11.846  0.1328  0.1387 -0.6269
18386SOL    HW156599   0.819   6.984  11.800  0.3020 -1.1665 -1.2956
18386SOL    HW256600   0.878   6.933  11.930  0.1415 -1.3133 -1.2792
18387SOL     OW56601   2.623   7.368   7.509 -0.7161 -0.6231  0.7274
18387SOL    HW156602   2.534   7.393   7.487 -0.2378  0.8168  0.3326
18387SOL    HW256603   2.669   7.364   7.426 -0.0266  0.2533  1.0540
18388SOL     OW56604   6.841   4.834   2.868 -0.5115  0.1684  0.5535
18388SOL    HW156605   6.899   4.823   2.793 -1.3082 -3.2340  0.2768
18388SOL    HW256606   6.893   4.884   2.931  1.0728  1.0004 -1.3177
18389SOL     OW56607   3.183   6.726   2.029 -0.4710  0.2095 -0.1711
18389SOL    HW156608   3.175   6.746   2.122 -0.2534  0.3365 -0.1782
18389SOL    HW256609   3.269   6.685   2.020 -0.9992 -0.9341 -0.1290
18390SOL     OW56610   5.938   5.811   1.091  0.1958  0.6479 -0.1695
18390SOL    HW156611   5.984   5.727   1.084 -0.9855 -0.1941  1.4579
18390SOL    HW256612   5.873   5.807   1.020 -0.8304 -0.5210  0.7720
18391SOL     OW56613   5.933   0.454   3.474 -0.4766 -0.2230 -0.1815
18391SOL    HW156614   5.875   0.381   3.453 -0.1068 -0.4560 -0.4074
18391SOL    HW256615   6.017   0.430   3.435 -0.0123 -0.2591  0.8090
18392SOL     OW56616   7.295   5.037   8.162 -0.4088  0.2368  0.1046
18392SOL    HW156617   7.359   5.106   8.176 -0.7490  0.3841  1.0221
18392SOL    HW256618   7.236   5.071   8.095  1.3206 -0.5052 -1.8766
18393SOL     OW56619   1.744   2.527  11.365  0.1080  0.1248 -0.0138
18393SOL    HW156620   1.793   2.609  11.352  0.8400 -0.4184 -0.8027
18393SOL    HW256621   1.803   2.470  11.413 -0.1471 -0.1824 -0.0588
18394SOL     OW56622   4.859   5.819  12.017 -0.3649  0.1205  0.4814
18394SOL    HW156623   4.834   5.830  12.108  0.8387  6.5827  0.5001
18394SOL    HW256624   4.955   5.825  12.018 -0.3762  1.2008 -1.1924
18395SOL     OW56625   6.376   4.533   6.915  0.3497 -0.2362 -0.6643
18395SOL    HW156626   6.330   4.457   6.880  0.2943  0.8056 -3.0148
18395SOL    HW256627   6.468   4.507   6.916  0.0884 -1.2248  1.0904
18396SOL     OW56628   0.956   3.667   1.490 -0.0883 -0.0334  0.1528
18396SOL    HW156629   0.896   3.705   1.555  0.3920 -1.6183  1.5918
18396SOL    HW256630   0.915   3.686   1.406 -0.8320  1.9213  0.8936
18397SOL     OW56631   2.374   6.695   7.875  0.0887  0.0388 -0.3154
18397SOL    HW156632   2.281   6.717   7.871 -0.2131 -1.0825  0.1210
18397SOL    HW256633   2.418   6.772   7.840 -0.8164  1.8188  2.1292
18398SOL     OW56634   1.355   0.092  10.215  0.0537 -0.6726  0.4246
18398SOL    HW156635   1.381   0.061  10.129  0.2881  0.4603  0.0729
18398SOL    HW256636   1.260   0.099  10.211  0.2174  1.8774 -0.6609
18399SOL     OW56637   1.912   5.965  11.204  0.6057  0.1424 -0.2753
18399SOL    HW156638   1.861   5.884  11.195  1.4230 -0.3929 -0.1491
18399SOL    HW256639   1.853   6.024  11.252  0.7590 -1.0912  1.5417
18400SOL     OW56640   7.511   3.676   4.208 -0.4819 -0.0426 -0.4031
18400SOL    HW156641   7.539   3.592   4.171 -1.7904 -0.3682 -0.7295
18400SOL    HW256642   7.415   3.670   4.210 -0.5906  1.4045 -0.3151
18401SOL     OW56643   6.949   4.168   8.614 -0.1179  0.3173 -0.3700
18401SOL    HW156644   6.893   4.095   8.586 -1.0505  1.0430 -0.4642
18401SOL    HW256645   7.016   4.127   8.668 -1.0200 -0.5446  0.1513
18402SOL     OW56646   2.103   7.665   2.044 -0.1850  0.3782 -0.2520
18402SOL    HW156647   2.082   7.756   2.067 -2.1954 -0.1307  0.0338
18402SOL    HW256648   2.083   7.659   1.950 -1.4984 -0.1466  0.0502
18403SOL     OW56649   0.903   1.793  10.476  0.3634 -0.4180 -0.5791
18403SOL    HW156650   0.888   1.827  10.564 -1.2117  1.1130 -1.3846
18403SOL    HW256651   0.905   1.698  10.487 -1.7686 -0.3588  0.8711
18404SOL     OW56652   1.816   0.988   7.262 -0.2179 -0.1150 -0.2040
18404SOL    HW156653   1.809   0.907   7.213 -0.6911 -0.1704 -0.0416
18404SOL    HW256654   1.726   1.018   7.274 -0.0966  0.0007  0.4606
18405SOL     OW56655   1.463   4.435   3.491 -0.3537  0.4926  0.4344
18405SOL    HW156656   1.410   4.492   3.436 -1.0993  0.5772  1.2211
18405SOL    HW256657   1.406   4.361   3.511  0.0514  0.2609  0.7509
18406SOL     OW56658   6.141   6.117   0.643  0.3697  0.7790 -0.1010
18406SOL    HW156659   6.171   6.041   0.693 -0.3915  0.3598 -0.2718
18406SOL    HW256660   6.218   6.173   0.637  0.2819  1.2751  2.2912
18407SOL     OW56661   2.809   0.592  10.047 -0.0943  0.2072  0.5561
18407SOL    HW156662   2.790   0.523   9.982  0.7673 -0.7839  1.3193
18407SOL    HW256663   2.797   0.674   9.999  0.7677 -0.5024 -0.9512
18408SOL     OW56664   7.195   3.267   1.304  0.3511 -0.5758  0.0451
18408SOL    HW156665   7.253   3.313   1.243 -1.3474 -0.3090 -1.4830
18408SOL    HW256666   7.139   3.335   1.340  0.3723 -0.9460  0.8054
18409SOL     OW56667   3.206   5.154   9.974 -0.1997  0.2480 -0.7201
18409SOL    HW156668   3.252   5.218   9.920 -0.9189  0.3190 -1.2630
18409SOL    HW256669   3.176   5.204  10.050 -1.3985  0.7489 -1.4928
18410SOL     OW56670   6.560   1.353   2.537 -0.2844  0.1332 -0.0421
18410SOL    HW156671   6.549   1.426   2.598 -0.1912 -0.0204  0.1596
18410SOL    HW256672   6.471   1.329   2.512 -0.3724 -0.4150  0.7623
18411SOL     OW56673   2.232   5.428   1.991 -0.3883 -0.3943  0.2442
18411SOL    HW156674   2.221   5.336   1.968 -1.7602 -0.4678  1.0820
18411SOL    HW256675   2.176   5.475   1.929 -0.7044 -0.2380  0.6459
18412SOL     OW56676   6.854   7.129   3.538  0.2689 -0.1905  0.6622
18412SOL    HW156677   6.943   7.105   3.563  0.8820 -0.0704 -1.2656
18412SOL    HW256678   6.802   7.052   3.559  0.8261 -0.2966  1.7196
18413SOL     OW56679   6.840   3.785   9.664 -0.0382  0.7525 -0.0393
18413SOL    HW156680   6.888   3.710   9.630 -0.6143 -0.2583  1.2521
18413SOL    HW256681   6.749   3.754   9.668 -0.1839  1.2853  1.0885
18414SOL     OW56682   4.947   3.727   6.656 -0.1240 -0.2468  0.6403
18414SOL    HW156683   4.988   3.753   6.573 -1.4577 -1.9991 -0.6497
18414SOL    HW256684   4.866   3.780   6.660 -1.3545 -1.9330 -0.5256
18415SOL     OW56685   6.358   4.376   9.786 -0.5817  0.2521  0.4052
18415SOL    HW156686   6.322   4.342   9.705 -0.9103  0.5667  0.4165
18415SOL    HW256687   6.413   4.305   9.820 -0.4760  0.1051 -0.0674
18416SOL     OW56688   3.152   2.671   6.221 -0.4686 -0.6116 -0.1062
18416SOL    HW156689   3.199   2.633   6.295 -1.1926 -1.1678  0.0800
18416SOL    HW256690   3.083   2.608   6.201 -1.5088  0.4354  0.0152
18417SOL     OW56691   5.436   1.829   2.850 -0.0356  0.2442 -0.0418
18417SOL    HW156692   5.408   1.763   2.914  0.0781  1.4930  1.3352
18417SOL    HW256693   5.361   1.836   2.790 -1.4621  1.2499  1.7555
18418SOL     OW56694   0.639   6.523   8.563 -0.1013  0.0751  0.2609
18418SOL    HW156695   0.586   6.566   8.496 -2.6899 -1.0841  1.4396
18418SOL    HW256696   0.706   6.588   8.585 -0.0990  1.0728 -2.2943
18419SOL     OW56697   6.952   4.484  10.973  0.0618 -0.2575 -0.0179
18419SOL    HW156698   6.900   4.485  10.893 -0.5242 -1.3579  0.3154
18419SOL    HW256699   7.000   4.566  10.972 -0.1390 -0.1316 -1.3603
18420SOL     OW56700   6.232   6.916   5.914 -0.0188 -0.0250 -0.3415
18420SOL    HW156701   6.271   6.841   5.870  0.2110 -0.9877  1.3990
18420SOL    HW256702   6.279   6.922   5.998 -1.7491  0.4795  0.6434
18421SOL     OW56703   0.910   1.127   2.611  0.5675  0.2547 -0.0556
18421SOL    HW156704   0.936   1.050   2.662  1.3978  0.4776 -0.1311
18421SOL    HW256705   0.967   1.125   2.534  0.0872  0.5397 -0.4225
18422SOL     OW56706   0.535   7.722   5.301 -0.2872  0.2407  1.1453
18422SOL    HW156707   0.504   7.697   5.214 -0.0226 -1.0863  1.4175
18422SOL    HW256708   0.467   7.781   5.334 -0.6419  0.3505  0.2437
18423SOL     OW56709   7.937   7.460   5.080  0.1057 -0.7012  0.0736
18423SOL    HW156710   7.972   7.379   5.044  0.4313 -0.2808 -0.5711
18423SOL    HW256711   7.897   7.434   5.163  0.1751 -1.5232 -0.1428
18424SOL     OW56712   5.391   1.232  12.210 -0.2906 -0.4086  0.6268
18424SOL    HW156713   5.389   1.236  12.114 -1.4442 -1.7549  0.5684
18424SOL    HW256714   5.425   1.145  12.230 -0.5291 -0.3231  1.4291
18425SOL     OW56715   0.075   1.015  10.928  0.4739  0.7004 -0.7357
18425SOL    HW156716   0.113   0.963  10.858 -0.6310 -1.5048  0.2028
18425SOL    HW256717   0.005   1.065  10.886 -1.4211 -1.9887 -1.0257
18426SOL     OW56718   2.783   1.451   8.071  0.1650 -0.0926  0.4473
18426SOL    HW156719   2.841   1.519   8.104  0.3670  0.9995 -1.9355
18426SOL    HW256720   2.838   1.399   8.013 -0.6613 -0.5405  0.0530
18427SOL     OW56721   4.993   5.019   2.490 -0.8827 -0.0509  0.3801
18427SOL    HW156722   4.963   4.931   2.514 -0.4341 -0.5403 -0.7726
18427SOL    HW256723   5.088   5.010   2.482 -0.8945  0.3919 -0.3192
18428SOL     OW56724   2.713   3.693  12.125 -1.1206  0.1017 -0.0391
18428SOL    HW156725   2.713   3.713  12.031 -1.1781 -1.0184 -0.2899
18428SOL    HW256726   2.681   3.603  12.130 -1.3081  0.2231  1.0774
18429SOL     OW56727   4.637   7.448  12.179 -0.0316 -0.2345 -0.2617
18429SOL    HW156728   4.670   7.372  12.132  0.5344  0.5099 -1.1200
18429SOL    HW256729   4.715   7.501  12.196 -0.0190 -1.0678  2.7112
18430SOL     OW56730   5.293   7.948   5.292  0.3055  0.7665 -0.0373
18430SOL    HW156731   5.317   7.859   5.267 -0.0199  0.3837  0.9686
18430SOL    HW256732   5.368   7.980   5.341 -0.3863  0.2825  1.3917
18431SOL     OW56733   3.544   4.111   0.705 -0.3844 -0.4336  0.3349
18431SOL    HW156734   3.530   4.018   0.688 -1.6330 -0.1239 -0.5012
18431SOL    HW256735   3.557   4.117   0.800 -0.8596 -1.3907  0.4697
18432SOL     OW56736   6.276   3.927   4.543 -0.2042  0.0630  0.5115
18432SOL    HW156737   6.192   3.941   4.587 -0.6420 -1.7687  0.3410
18432SOL    HW256738   6.262   3.848   4.491  1.1655  0.6075 -0.7472
18433SOL     OW56739   0.846   3.958  12.341  0.6577  0.6739  0.1384
18433SOL    HW156740   0.780   3.945  12.273 -0.9041 -0.0093  1.6941
18433SOL    HW256741   0.831   4.047  12.373  1.2317  0.9087 -0.2202
18434SOL     OW56742   5.799   4.683  10.032 -0.5579 -0.5963 -0.2578
18434SOL    HW156743   5.870   4.738  10.064 -0.8870 -0.3434  0.0413
18434SOL    HW256744   5.721   4.738  10.036 -0.6305 -0.5802 -1.4301
18435SOL     OW56745   4.527   6.324   9.927 -0.4966  0.0975 -1.0119
18435SOL    HW156746   4.547   6.240   9.969 -0.8697  0.3753 -0.2385
18435SOL    HW256747   4.612   6.367   9.918 -0.6061  1.5247  2.7774
18436SOL     OW56748   3.047   4.476   6.918  0.3722 -0.1821  0.1783
18436SOL    HW156749   3.045   4.434   7.004  2.1220 -0.2175  0.2341
18436SOL    HW256750   3.082   4.564   6.935  1.0799 -0.3198 -0.5342
18437SOL     OW56751   1.060   5.675   0.105  0.3336 -0.0523 -0.0618
18437SOL    HW156752   1.112   5.699   0.028 -0.1539  0.4443 -0.2428
18437SOL    HW256753   1.097   5.727   0.176  0.7322 -0.4513  0.0274
18438SOL     OW56754   2.794   4.133   9.447 -0.3461 -0.2289  0.0836
18438SOL    HW156755   2.840   4.200   9.499 -0.0054 -0.2381 -0.2055
18438SOL    HW256756   2.805   4.053   9.498 -2.6454  0.3069  1.5923
18439SOL     OW56757   0.045   7.655   1.457 -0.6968  0.4313  0.0901
18439SOL    HW156758   0.125   7.603   1.465  0.0260  1.0412 -2.2574
18439SOL    HW256759   0.075   7.739   1.423 -2.2917  0.8340 -0.3928
18440SOL     OW56760   4.592   5.850  10.380  0.0520 -0.2794  0.0444
18440SOL    HW156761   4.564   5.766  10.416  0.6545 -0.9370 -0.9591
18440SOL    HW256762   4.513   5.904  10.379 -1.3085 -2.0367 -2.6666
18441SOL     OW56763   3.232   0.306   1.611 -0.5472  0.7659  0.0432
18441SOL    HW156764   3.145   0.283   1.643  0.0645 -1.6039  0.2036
18441SOL    HW256765   3.266   0.368   1.676 -0.8437 -0.9165  1.8982
18442SOL     OW56766   2.700   2.766   4.354  0.2924 -0.0304  0.2742
18442SOL    HW156767   2.774   2.822   4.378  0.1538 -0.2859  1.3742
18442SOL    HW256768   2.734   2.677   4.361 -0.4940 -0.2304  2.3539
18443SOL     OW56769   2.262   2.784  10.170  0.3566  0.4099 -0.2244
18443SOL    HW156770   2.188   2.722  10.164  0.7885 -0.0444 -1.0216
18443SOL    HW256771   2.339   2.728  10.176  0.8455  0.8464 -2.0705
18444SOL     OW56772   5.898   3.351   1.665  0.0832 -0.4677 -0.1766
18444SOL    HW156773   5.807   3.325   1.675  0.3299 -1.4099 -0.3305
18444SOL    HW256774   5.936   3.341   1.752 -0.2417  1.1315  0.1897
18445SOL     OW56775   2.086   6.165  11.828  0.0506  0.7535 -0.8246
18445SOL    HW156776   2.144   6.129  11.761  0.1367  1.5514 -1.1972
18445SOL    HW256777   1.999   6.132  11.805  0.4747 -1.3022  0.3412
18446SOL     OW56778   5.344   6.643   9.661  0.3050  0.6404  0.2221
18446SOL    HW156779   5.330   6.683   9.575  1.4661 -2.5748 -1.6247
18446SOL    HW256780   5.435   6.615   9.660 -0.5726 -2.6628  0.9227
18447SOL     OW56781   5.581   0.475   3.816  0.5553 -0.3888  0.0708
18447SOL    HW156782   5.526   0.534   3.867  0.3023 -0.5773  0.0176
18447SOL    HW256783   5.652   0.530   3.783  0.4161 -0.1530  0.1643
18448SOL     OW56784   1.148   1.985   0.953  0.6147  0.0752  0.3527
18448SOL    HW156785   1.108   1.932   1.022 -0.2667 -0.9699 -0.9051
18448SOL    HW256786   1.082   1.986   0.883  2.2489 -0.5796 -1.2817
18449SOL     OW56787   6.461   0.732  11.185 -0.3174  0.1892 -0.0348
18449SOL    HW156788   6.377   0.772  11.161 -0.8998 -1.3101 -0.6362
18449SOL    HW256789   6.458   0.726  11.280 -0.9388  0.0742 -0.0543
18450SOL     OW56790   0.138   1.940   4.704  0.4803 -0.3647 -0.1818
18450SOL    HW156791   0.115   1.865   4.649 -1.5621 -0.3474  0.5735
18450SOL    HW256792   0.054   1.980   4.727  1.1527 -0.5986  3.2605
18451SOL     OW56793   3.068   0.024   4.371 -0.1075  0.3933 -0.2411
18451SOL    HW156794   3.142   0.055   4.318 -0.4274  1.4631 -0.0707
18451SOL    HW256795   3.094   0.039   4.461 -0.2421  0.0967 -0.1501
18452SOL     OW56796   1.036   5.066   7.988 -0.5856  0.3771  0.0214
18452SOL    HW156797   1.070   5.154   8.003 -0.4761  0.3634 -0.1470
18452SOL    HW256798   0.949   5.067   8.028 -1.3398  1.1321 -1.5354
18453SOL     OW56799   1.246   1.312   0.838 -0.0099  0.1422 -0.1917
18453SOL    HW156800   1.286   1.234   0.876 -0.5009  0.0134  0.0605
18453SOL    HW256801   1.262   1.303   0.744  1.1359  0.4246 -0.0416
18454SOL     OW56802   0.412   0.428   5.439  0.2416 -0.1791  0.3677
18454SOL    HW156803   0.337   0.401   5.386 -0.5484 -1.0686  1.8885
18454SOL    HW256804   0.487   0.387   5.396  0.0347  1.3991 -1.6590
18455SOL     OW56805   6.648   1.288   6.754 -0.1503  0.0867  0.2657
18455SOL    HW156806   6.679   1.375   6.780 -0.4949  0.1422  0.4971
18455SOL    HW256807   6.725   1.245   6.716  0.3375  0.0517  1.2605
18456SOL     OW56808   3.670   7.639   9.455 -0.2262 -0.0571  0.2272
18456SOL    HW156809   3.709   7.627   9.368  1.9273  3.4869  0.5067
18456SOL    HW256810   3.581   7.671   9.437 -0.2992 -0.6707 -0.5895
18457SOL     OW56811   3.623   4.024   0.105  0.3715 -0.1305 -0.1098
18457SOL    HW156812   3.713   3.996   0.091 -0.1210 -1.1361 -1.5969
18457SOL    HW256813   3.590   4.042   0.017 -1.3883 -1.5079  0.2006
18458SOL     OW56814   1.470   7.903   5.797 -0.1772 -0.0262  0.3645
18458SOL    HW156815   1.437   7.992   5.813  1.9881  0.7705  0.7388
18458SOL    HW256816   1.558   7.904   5.834 -0.8708 -3.0411  2.4083
18459SOL     OW56817   0.461   6.047   0.184  0.1222 -0.2202  0.1440
18459SOL    HW156818   0.469   5.954   0.166 -1.3631 -0.4028  0.2878
18459SOL    HW256819   0.459   6.089   0.097 -0.6135 -0.4769  0.0263
18460SOL     OW56820   5.848   1.467  10.510  0.3854  0.2660 -0.3938
18460SOL    HW156821   5.801   1.524  10.571  0.2277  0.8227 -1.0294
18460SOL    HW256822   5.829   1.503  10.423  3.4572  1.6178 -0.6069
18461SOL     OW56823   6.348   0.511   4.134 -0.0434 -0.5407  0.6100
18461SOL    HW156824   6.441   0.499   4.155 -0.6007 -1.6839  2.7771
18461SOL    HW256825   6.343   0.498   4.040  2.2485  1.5616  0.0830
18462SOL     OW56826   1.405   5.686  10.190  0.2111 -0.2028  0.1242
18462SOL    HW156827   1.355   5.618  10.144  0.4584 -0.7431  0.6407
18462SOL    HW256828   1.496   5.659  10.180  0.2349 -0.6719  1.4524
18463SOL     OW56829   0.768   3.336   4.560 -0.4329 -0.4039  0.1613
18463SOL    HW156830   0.759   3.290   4.643 -0.2652  0.9341  0.9633
18463SOL    HW256831   0.680   3.336   4.522 -0.4692 -1.1848  0.2311
18464SOL     OW56832   7.080   3.883   2.811 -0.0274  0.3210 -0.2689
18464SOL    HW156833   6.987   3.897   2.793 -0.3151 -0.9117  0.1538
18464SOL    HW256834   7.124   3.905   2.729 -0.7602  0.3142 -0.6719
18465SOL     OW56835   1.135   1.355  10.307 -0.4395  0.3200 -0.3473
18465SOL    HW156836   1.100   1.268  10.291 -0.2775  0.5227 -1.9538
18465SOL    HW256837   1.062   1.405  10.342 -0.2441 -0.7277  1.7019
18466SOL     OW56838   4.069   0.687   4.381 -0.0843 -0.0719 -0.3639
18466SOL    HW156839   4.037   0.741   4.453 -1.9980 -1.4990 -0.0513
18466SOL    HW256840   4.010   0.612   4.380  2.5450 -2.2928 -0.6225
18467SOL     OW56841   2.037   4.229   0.973 -0.1157 -0.1044 -0.4989
18467SOL    HW156842   2.060   4.145   1.012  1.3218  0.4484 -0.0542
18467SOL    HW256843   2.059   4.219   0.880  1.5949  0.2467 -0.1707
18468SOL     OW56844   0.450   5.285   3.797 -0.1719  0.4849  0.0743
18468SOL    HW156845   0.391   5.323   3.731  0.0584 -0.9342 -0.9880
18468SOL    HW256846   0.483   5.361   3.846 -0.3411  1.5836 -1.4408
18469SOL     OW56847   1.906   4.029   9.379 -0.1042  0.4567  0.2301
18469SOL    HW156848   1.928   4.119   9.404 -0.3811  0.1377  1.7356
18469SOL    HW256849   1.812   4.022   9.396 -0.1913  0.0256 -0.3938
18470SOL     OW56850   4.645   5.052  10.779 -0.2130 -0.0474 -0.0892
18470SOL    HW156851   4.625   4.998  10.855 -0.0084  1.0435  0.7797
18470SOL    HW256852   4.734   5.085  10.796 -0.8051  1.5895  0.0851
18471SOL     OW56853   4.960   0.298  11.590 -0.0492 -0.3710 -0.3743
18471SOL    HW156854   4.964   0.330  11.680 -1.8545  0.1381 -0.4435
18471SOL    HW256855   4.876   0.252  11.584 -0.0450 -0.2368 -1.8488
18472SOL     OW56856   6.981   6.698   2.818  0.5422  0.6728  0.6061
18472SOL    HW156857   6.958   6.779   2.772 -1.0688 -0.1869 -0.1834
18472SOL    HW256858   6.960   6.716   2.910 -0.8928  0.8096  0.2736
18473SOL     OW56859   7.212   6.789   1.919  0.5164  0.1060  0.3371
18473SOL    HW156860   7.276   6.823   1.982  0.1873  1.0269  0.1995
18473SOL    HW256861   7.155   6.733   1.971  0.3084  0.7791  0.8487
18474SOL     OW56862   1.241   6.265   3.558 -0.4059 -0.4211  1.1980
18474SOL    HW156863   1.219   6.273   3.465  0.3911 -3.5923  0.6043
18474SOL    HW256864   1.243   6.355   3.590 -0.5861  0.8042 -1.8593
18475SOL     OW56865   1.691   5.398  11.304  0.1478 -0.1424 -0.4034
18475SOL    HW156866   1.772   5.439  11.334  0.3156 -0.1552 -0.8242
18475SOL    HW256867   1.623   5.463  11.321  0.5840  0.8622 -2.2089
18476SOL     OW56868   3.571   2.643   3.619 -0.3978  0.2813 -0.3845
18476SOL    HW156869   3.648   2.616   3.670  0.9029  0.3083 -2.2349
18476SOL    HW256870   3.496   2.612   3.670  0.8288  0.1590  1.4220
18477SOL     OW56871   0.699   4.715   5.917  0.2237 -0.2055  0.2782
18477SOL    HW156872   0.633   4.738   5.852  1.0592  0.4310 -0.3627
18477SOL    HW256873   0.650   4.669   5.986 -0.5493 -1.6579 -1.1833
18478SOL     OW56874   6.665   6.555  11.122  0.0129 -0.3918  0.3772
18478SOL    HW156875   6.570   6.548  11.132  0.0867 -1.8388  0.2187
18478SOL    HW256876   6.701   6.514  11.200  0.5159  0.1676  0.4436
18479SOL     OW56877   3.329   5.697   9.538 -0.0741  0.3458  0.3332
18479SOL    HW156878   3.368   5.621   9.497 -0.2297 -1.3213  3.0172
18479SOL    HW256879   3.234   5.681   9.534 -0.1774  1.0707 -0.2746
18480SOL     OW56880   5.455   5.175   6.200 -0.2009 -0.6540 -0.6334
18480SOL    HW156881   5.453   5.094   6.252 -2.2963  0.5094  1.2794
18480SOL    HW256882   5.539   5.215   6.223 -1.1429 -0.0725  2.1907
18481SOL     OW56883   1.606   7.184   2.665 -0.3193 -0.3213 -0.5314
18481SOL    HW156884   1.552   7.255   2.632  0.1918  0.4726  0.3114
18481SOL    HW256885   1.696   7.215   2.655 -0.0534 -1.1304 -0.7718
18482SOL     OW56886   7.867   7.820   1.988 -0.0135 -0.0856 -0.4229
18482SOL    HW156887   7.899   7.803   2.076 -2.1110  0.5562  0.5243
18482SOL    HW256888   7.889   7.741   1.939  0.2640 -0.8903  0.9463
18483SOL     OW56889   4.053   2.262   5.911  0.3812 -0.0626 -0.3753
18483SOL    HW156890   3.971   2.292   5.871 -0.5908  1.3360  2.3895
18483SOL    HW256891   4.112   2.248   5.837 -2.1935 -0.7677 -2.4574
18484SOL     OW56892   5.560   1.847   7.700 -0.6929 -0.1856  0.2646
18484SOL    HW156893   5.586   1.937   7.720 -1.3556 -0.5445  3.3162
18484SOL    HW256894   5.489   1.856   7.636 -0.0061  1.3711 -0.3228
18485SOL     OW56895   2.524   7.231   4.438 -0.6541  0.1877 -0.3713
18485SOL    HW156896   2.436   7.265   4.451  0.5776  2.8063  2.0838
18485SOL    HW256897   2.535   7.164   4.505 -0.4414  0.6293  0.0408
18486SOL     OW56898   3.486   1.820   5.512  0.0839 -0.2939  0.2417
18486SOL    HW156899   3.492   1.725   5.518 -1.6449 -0.4486  0.0008
18486SOL    HW256900   3.447   1.847   5.595  0.3992  0.1889  0.2367
18487SOL     OW56901   5.901   6.441   1.621  0.8273  0.2807 -0.3742
18487SOL    HW156902   5.806   6.444   1.610  1.0380  0.2736 -2.7532
18487SOL    HW256903   5.915   6.372   1.686 -0.7662 -0.0905 -0.3737
18488SOL     OW56904   1.822   0.457   5.588 -0.2430  0.3917  0.0406
18488SOL    HW156905   1.894   0.449   5.526 -1.0809 -0.0707 -0.8926
18488SOL    HW256906   1.744   0.472   5.534 -1.0572 -0.4568  0.9221
18489SOL     OW56907   3.765   1.300   1.289 -0.1245 -0.5425  0.5876
18489SOL    HW156908   3.815   1.243   1.347 -0.4320 -2.6062 -1.0271
18489SOL    HW256909   3.779   1.388   1.323  0.6765 -1.5208  3.0037
18490SOL     OW56910   4.151   6.823   3.218  0.3862  0.0881  0.3094
18490SOL    HW156911   4.160   6.896   3.279 -2.1389  0.4386  0.3952
18490SOL    HW256912   4.093   6.856   3.149  0.2633 -1.4041 -0.3496
18491SOL     OW56913   3.967   6.589   6.102  0.4631 -0.5323 -0.1359
18491SOL    HW156914   3.910   6.666   6.102  0.5043 -0.4817 -1.3913
18491SOL    HW256915   3.910   6.518   6.132  0.2496 -0.1476  0.4061
18492SOL     OW56916   1.746   0.294   7.615  0.0589  0.4010 -0.3272
18492SOL    HW156917   1.732   0.312   7.708  1.6074  1.0135 -0.1802
18492SOL    HW256918   1.674   0.236   7.590 -0.2421  0.0289  1.3163
18493SOL     OW56919   1.702   3.194   7.279 -0.0100 -0.0833 -0.4414
18493SOL    HW156920   1.631   3.219   7.338  1.8091  0.8897  1.4718
18493SOL    HW256921   1.715   3.100   7.295  1.2831  0.4109  1.7525
18494SOL     OW56922   3.982   7.210   5.470  0.5035 -0.7650  0.5472
18494SOL    HW156923   4.025   7.126   5.455  0.0997 -0.7316 -1.0254
18494SOL    HW256924   4.050   7.276   5.452  0.4214 -0.7460  0.2964
18495SOL     OW56925   3.264   1.730   9.801  0.0355 -0.2355  0.4397
18495SOL    HW156926   3.314   1.713   9.880 -0.5054  0.2210  0.8874
18495SOL    HW256927   3.191   1.785   9.830 -0.2134 -0.1324 -0.3572
18496SOL     OW56928   3.924   1.055   9.270  0.3815  0.4072  0.0349
18496SOL    HW156929   3.848   1.046   9.327  0.2349 -1.2840 -0.3878
18496SOL    HW256930   3.999   1.046   9.329  0.2406  0.1549  0.1759
18497SOL     OW56931   0.564   5.719   5.306 -0.0033 -0.3955  0.5596
18497SOL    HW156932   0.561   5.628   5.277 -1.1977  0.1068 -1.0830
18497SOL    HW256933   0.485   5.759   5.268  0.4893  1.3184  1.2231
18498SOL     OW56934   5.620   5.941   5.935  0.4903  0.2274 -0.6487
18498SOL    HW156935   5.660   6.013   5.886  2.9002 -0.3314  0.3712
18498SOL    HW256936   5.621   5.868   5.874 -0.8979  0.7005 -1.2909
18499SOL     OW56937   1.552   4.759   8.842 -0.3794 -0.2627  0.1940
18499SOL    HW156938   1.614   4.816   8.798 -0.2722  0.3228  1.0779
18499SOL    HW256939   1.599   4.728   8.920 -0.9107 -0.4684  0.4393
18500SOL     OW56940   7.431   0.601   7.892  0.1283  0.3023  0.4110
18500SOL    HW156941   7.453   0.521   7.939 -2.7662 -0.8084  0.0508
18500SOL    HW256942   7.508   0.657   7.903  1.7754 -2.0493  1.6557
18501SOL     OW56943   0.216   4.403  11.144 -0.7389  0.0393  0.3016
18501SOL    HW156944   0.127   4.369  11.152 -0.2393 -1.2294  0.7232
18501SOL    HW256945   0.208   4.479  11.087 -1.9516 -0.6233 -0.4491
18502SOL     OW56946   5.694   2.887   0.763 -0.3849 -0.0358  0.3736
18502SOL    HW156947   5.667   2.818   0.824 -0.3180 -2.3715 -2.0735
18502SOL    HW256948   5.627   2.886   0.694  0.5719  1.1481 -0.6161
18503SOL     OW56949   7.208   4.085   8.055  0.0869  0.1420  0.0085
18503SOL    HW156950   7.145   4.045   7.995  2.0568 -0.7244 -1.6359
18503SOL    HW256951   7.192   4.179   8.049 -3.0311 -0.1277  2.0639
18504SOL     OW56952   6.272   5.590   1.237 -0.1122  0.3520 -0.5827
18504SOL    HW156953   6.204   5.565   1.300 -1.9812  2.1593 -1.7394
18504SOL    HW256954   6.350   5.606   1.290 -1.0069 -0.2878  0.9828
18505SOL     OW56955   7.142   0.364   3.753 -0.6364 -0.0597 -0.2943
18505SOL    HW156956   7.232   0.389   3.772 -1.2385  1.4359  0.8538
18505SOL    HW256957   7.137   0.362   3.658  0.3153  1.0464 -0.3869
18506SOL     OW56958   0.923   5.595   7.690 -0.1239 -0.2750 -0.6563
18506SOL    HW156959   0.901   5.543   7.768  0.4200 -1.1714 -1.0859
18506SOL    HW256960   0.843   5.643   7.670  0.1354  1.1045  1.2928
18507SOL     OW56961   6.434   4.809   6.877 -0.1181 -0.4209  0.0028
18507SOL    HW156962   6.405   4.720   6.896  0.3505 -0.1430  2.4519
18507SOL    HW256963   6.381   4.864   6.935  2.1615  0.4952  1.3562
18508SOL     OW56964   2.247   6.538   1.254  0.7718 -0.0074  0.3012
18508SOL    HW156965   2.165   6.489   1.249 -0.1882  1.6543 -1.0919
18508SOL    HW256966   2.301   6.502   1.183  0.5241  0.1527  0.0311
18509SOL     OW56967   6.126   7.622   5.877 -0.2803  0.7914 -0.5052
18509SOL    HW156968   6.090   7.679   5.809 -0.5054  2.3673  0.8630
18509SOL    HW256969   6.215   7.603   5.848 -0.8312  0.2757 -1.9048
18510SOL     OW56970   5.574   0.167   8.825 -0.3356  0.2978  0.3656
18510SOL    HW156971   5.511   0.224   8.869  0.3580  0.1127  1.6761
18510SOL    HW256972   5.616   0.222   8.760  0.1448  1.2373  1.4371
18511SOL     OW56973   0.318   5.346   2.230 -0.2986  0.3531  0.2645
18511SOL    HW156974   0.388   5.381   2.285 -0.2531  0.2255  0.2869
18511SOL    HW256975   0.250   5.413   2.233  0.3250  1.0697 -0.7701
18512SOL     OW56976   0.871   1.863   6.334  0.0169 -0.3501  0.4469
18512SOL    HW156977   0.790   1.816   6.357  1.3329 -2.3605  1.2124
18512SOL    HW256978   0.872   1.938   6.394 -2.1250  0.7624 -0.7781
18513SOL     OW56979   3.156   1.071   0.541 -0.1154 -0.3440 -0.2247
18513SOL    HW156980   3.148   0.981   0.508 -1.9308  0.0075 -0.8436
18513SOL    HW256981   3.156   1.062   0.636 -0.0523 -1.0153 -0.2844
18514SOL     OW56982   2.493   6.271   1.425 -0.2931 -0.2548 -0.1095
18514SOL    HW156983   2.515   6.291   1.334  0.3965 -0.8275 -0.0764
18514SOL    HW256984   2.467   6.355   1.463 -0.7240 -0.0399 -0.8723
18515SOL     OW56985   3.584   0.040   2.513 -0.1922 -0.7088  0.4174
18515SOL    HW156986   3.566  -0.004   2.596  0.5325 -0.2388  0.8362
18515SOL    HW256987   3.598   0.131   2.536  3.2202 -1.0601  0.3047
18516SOL     OW56988   6.721   3.763   5.154  0.5180  0.3698 -0.3747
18516SOL    HW156989   6.686   3.851   5.169 -0.6017  0.0579 -1.0456
18516SOL    HW256990   6.700   3.744   5.062 -0.4904 -1.1171  0.1231
18517SOL     OW56991   6.944   4.354   6.675  0.1794  0.9407 -0.3000
18517SOL    HW156992   6.937   4.264   6.642  0.3331 -0.0142  2.0777
18517SOL    HW256993   7.028   4.385   6.641  0.3518  0.0181 -0.7686
18518SOL     OW56994   5.355   6.082   4.057 -0.2685 -0.2870  0.6904
18518SOL    HW156995   5.298   6.007   4.067 -1.8720  0.8756  0.6674
18518SOL    HW256996   5.330   6.141   4.128 -1.0162  1.3967 -0.8827
18519SOL     OW56997   7.397   3.384   1.778  0.1948  0.4345  0.5488
18519SOL    HW156998   7.328   3.451   1.780 -0.2870 -0.0401  0.1190
18519SOL    HW256999   7.462   3.414   1.842  0.5059  1.8838 -0.3953
18520SOL     OW57000   0.096   7.571   9.846 -0.3272 -0.2522  0.5235
18520SOL    HW157001   0.132   7.660   9.843  0.1305 -0.4483 -0.1988
18520SOL    HW257002   0.076   7.551   9.755  0.4461 -1.2294  0.5580
18521SOL     OW57003   1.727   7.836   2.567  0.1909  0.0727 -0.0490
18521SOL    HW157004   1.818   7.857   2.587  0.6863 -2.1560  0.3106
18521SOL    HW257005   1.730   7.798   2.479 -0.4319  0.1890 -0.1249
18522SOL     OW57006   7.321   5.982   2.134 -0.0573 -0.0333  0.7682
18522SOL    HW157007   7.260   6.039   2.180 -0.9834  0.3627 -0.8681
18522SOL    HW257008   7.401   6.033   2.126  0.3305 -0.3241  2.3819
18523SOL     OW57009   2.129   5.437   6.799  0.9190 -0.0263 -0.1940
18523SOL    HW157010   2.122   5.342   6.797  0.0744 -0.0378  1.5731
18523SOL    HW257011   2.039   5.468   6.789  0.2581  0.3549  4.6447
18524SOL     OW57012   1.245   6.114  12.320  0.2773  0.3296 -0.2777
18524SOL    HW157013   1.293   6.080  12.396 -0.8148  3.6852  2.1952
18524SOL    HW257014   1.154   6.089  12.336  0.0502  1.0168 -0.4529
18525SOL     OW57015   0.568   5.504  11.940 -0.2669 -0.0188 -0.2640
18525SOL    HW157016   0.541   5.493  12.031  0.4012 -1.5766 -0.2183
18525SOL    HW257017   0.664   5.508  11.943 -0.2401 -0.0279 -0.8855
18526SOL     OW57018   7.731   2.025  12.171  0.4800  0.3592  0.3563
18526SOL    HW157019   7.696   1.960  12.110 -1.9502 -0.5062  2.5097
18526SOL    HW257020   7.801   1.978  12.218 -0.0146 -0.1347  0.6156
18527SOL     OW57021   4.226   5.361   9.131  0.3063  0.2132  0.6093
18527SOL    HW157022   4.145   5.314   9.112  0.5271 -0.1111  0.4673
18527SOL    HW257023   4.204   5.418   9.206 -0.3809  1.0151 -0.1782
18528SOL     OW57024   2.400   3.252   1.273 -0.5935  0.2229 -0.3034
18528SOL    HW157025   2.435   3.186   1.214  0.8544  0.1866  0.5485
18528SOL    HW257026   2.445   3.333   1.249 -1.3099  0.6004 -0.4087
18529SOL     OW57027   3.472   4.397   1.861 -0.9387  0.2422 -0.1359
18529SOL    HW157028   3.539   4.337   1.827 -0.8217 -1.0229  2.0921
18529SOL    HW257029   3.511   4.484   1.851 -1.3897  0.1477 -4.0941
18530SOL     OW57030   7.554   7.279   2.426 -0.1599  0.6450  0.4638
18530SOL    HW157031   7.643   7.313   2.435  0.4282 -0.8887  0.7489
18530SOL    HW257032   7.532   7.293   2.333 -0.5755  3.1583  0.8641
18531SOL     OW57033   7.245   3.625   9.801  0.6529 -0.8290  0.6135
18531SOL    HW157034   7.241   3.645   9.708  1.3067  0.7030  0.8803
18531SOL    HW257035   7.255   3.530   9.805 -0.0350 -0.9922 -0.8427
18532SOL     OW57036   5.473   1.809   2.451  0.0559  0.5124 -0.4651
18532SOL    HW157037   5.564   1.836   2.462  0.2671 -0.0639 -0.7901
18532SOL    HW257038   5.422   1.883   2.484  0.6317  1.2412 -1.1902
18533SOL     OW57039   5.098   7.721   6.396 -0.2728 -0.2678 -0.3039
18533SOL    HW157040   5.072   7.699   6.306 -0.0924 -0.0911 -0.4006
18533SOL    HW257041   5.162   7.654   6.419 -0.4625 -0.4272 -0.2353
18534SOL     OW57042   1.217   0.069   8.076 -0.3399 -0.2352 -0.2696
18534SOL    HW157043   1.230  -0.021   8.046  3.7237  0.4606 -1.1698
18534SOL    HW257044   1.210   0.120   7.996  0.3388  0.5571  0.1641
18535SOL     OW57045   5.262   5.468   8.753 -0.1605  0.4912 -0.0657
18535SOL    HW157046   5.167   5.459   8.751 -0.0325 -1.3610 -1.7466
18535SOL    HW257047   5.287   5.480   8.661  1.2448  0.6485  0.3079
18536SOL     OW57048   7.024   0.234   4.279  0.4666  0.5209  0.2235
18536SOL    HW157049   6.973   0.177   4.222  2.2812 -0.0552 -0.8962
18536SOL    HW257050   6.969   0.311   4.291 -1.9460 -1.2416  1.5523
18537SOL     OW57051   1.122   3.689   8.062  0.0504  0.7088 -0.0760
18537SOL    HW157052   1.064   3.758   8.030  0.3538  0.5642 -0.9640
18537SOL    HW257053   1.085   3.608   8.027  0.7401  0.6107 -0.6065
18538SOL     OW57054   2.332   1.544  11.675 -0.2185 -0.4491 -0.0844
18538SOL    HW157055   2.289   1.459  11.685 -0.9780  0.0782  1.4461
18538SOL    HW257056   2.334   1.580  11.763  0.0508  1.1511 -0.7097
18539SOL     OW57057   7.821   0.142  10.058  0.7581 -0.1085 -0.0922
18539SOL    HW157058   7.745   0.200  10.057  1.0785  0.3610  1.0846
18539SOL    HW257059   7.895   0.202  10.070  0.9212 -0.8296  4.0885
18540SOL     OW57060   6.044   2.619   0.458 -0.1835 -0.3719  0.2007
18540SOL    HW157061   6.004   2.701   0.430 -0.6853  0.0766  2.0867
18540SOL    HW257062   5.990   2.551   0.417 -0.8780  0.2371  0.0840
18541SOL     OW57063   3.800   3.126  12.277  0.0088 -0.2100 -0.4377
18541SOL    HW157064   3.835   3.142  12.189 -1.0570 -1.7049 -1.1627
18541SOL    HW257065   3.870   3.156  12.335  1.0593  0.1084 -1.7928
18542SOL     OW57066   6.217   2.036  11.042  0.1188  0.4733 -0.1581
18542SOL    HW157067   6.202   1.942  11.047 -0.6369  0.5444 -0.9416
18542SOL    HW257068   6.304   2.044  11.001  0.4366  0.1216  0.4313
18543SOL     OW57069   2.985   7.716   1.403  0.1718 -0.0427 -0.2802
18543SOL    HW157070   3.064   7.765   1.425 -1.4042  3.1898 -1.2265
18543SOL    HW257071   2.967   7.739   1.312 -2.9504  1.0252  0.5086
18544SOL     OW57072   0.601   3.239  11.657  0.2053 -0.1976  0.1740
18544SOL    HW157073   0.527   3.187  11.624 -0.7758 -0.8964  3.1934
18544SOL    HW257074   0.676   3.179  11.654  0.7998  0.4952 -2.8378
18545SOL     OW57075   3.423   3.278   0.753  0.0197 -0.5777 -0.2490
18545SOL    HW157076   3.345   3.312   0.708  1.2785  1.1925 -1.2339
18545SOL    HW257077   3.405   3.294   0.846 -0.0024  1.7518 -0.5839
18546SOL     OW57078   4.495   0.609   6.085  0.7139  0.4201 -0.4111
18546SOL    HW157079   4.546   0.674   6.133 -2.0604  2.1814  0.4277
18546SOL    HW257080   4.473   0.543   6.150  0.6330  0.4863 -0.3707
18547SOL     OW57081   1.899   7.686   3.464 -0.0503 -0.0545 -0.4618
18547SOL    HW157082   1.929   7.774   3.487 -0.2784 -0.1550  0.2437
18547SOL    HW257083   1.980   7.637   3.447  0.0382  0.6907 -2.4731
18548SOL     OW57084   5.868   2.270   7.011  0.2648  0.1792 -0.2418
18548SOL    HW157085   5.829   2.264   7.099  0.7050 -0.6661 -0.0912
18548SOL    HW257086   5.888   2.363   7.000 -1.3892  0.5711 -0.1572
18549SOL     OW57087   4.685   2.223   0.856  0.1703 -0.1182 -0.1340
18549SOL    HW157088   4.763   2.181   0.894 -0.5418 -0.2420  1.2709
18549SOL    HW257089   4.617   2.155   0.861 -0.8265  0.9146  1.5599
18550SOL     OW57090   2.608   6.632   4.764  0.0212 -0.4913 -0.0816
18550SOL    HW157091   2.688   6.671   4.729  0.3299 -1.2837 -0.2901
18550SOL    HW257092   2.615   6.539   4.741 -1.3400 -0.4395 -0.8080
18551SOL     OW57093   6.752   4.516  11.162  0.5352  0.3152  0.8952
18551SOL    HW157094   6.712   4.588  11.113  0.4323 -1.3154 -1.6060
18551SOL    HW257095   6.838   4.504  11.122  0.5211 -0.9841  1.2099
18552SOL     OW57096   4.387   6.427   5.566 -0.8883 -0.4069 -0.2389
18552SOL    HW157097   4.346   6.340   5.573 -2.8221  0.5007  0.2781
18552SOL    HW257098   4.440   6.422   5.486 -0.5605 -2.1980  0.0345
18553SOL     OW57099   7.502   0.305  11.204  0.0487  0.0425  0.0104
18553SOL    HW157100   7.496   0.296  11.299 -1.1400 -1.7606 -0.1908
18553SOL    HW257101   7.413   0.289  11.172  0.8042 -1.4765 -1.5205
18554SOL     OW57102   1.174   1.558   0.857 -0.0958  0.5651 -0.1829
18554SOL    HW157103   1.202   1.466   0.864  0.1556  0.6647  0.1527
18554SOL    HW257104   1.144   1.580   0.945 -1.7243  0.3150 -0.6358
18555SOL     OW57105   2.705   0.823   9.953 -0.3351  0.5476 -0.1303
18555SOL    HW157106   2.613   0.800   9.966  0.1671 -1.7835 -0.1081
18555SOL    HW257107   2.720   0.897  10.011 -1.4088 -1.2200  2.6211
18556SOL     OW57108   0.018   4.977   2.012  0.0836 -0.5061 -0.0786
18556SOL    HW157109   0.014   4.904   2.073 -1.3687  0.5667  1.1792
18556SOL    HW257110   0.090   5.032   2.043  0.6132 -0.9474 -0.5117
18557SOL     OW57111   3.281   7.899   5.643 -0.8957 -0.4199  0.4658
18557SOL    HW157112   3.325   7.825   5.685 -2.4527 -1.8739 -0.3557
18557SOL    HW257113   3.345   7.932   5.579  0.4231  0.0443  1.9720
18558SOL     OW57114   1.022   2.147  10.871 -0.2635 -0.2317 -0.3082
18558SOL    HW157115   1.072   2.077  10.913  1.0097  0.1176 -1.1917
18558SOL    HW257116   1.077   2.224  10.877 -0.9419  0.3089 -0.8003
18559SOL     OW57117   5.656   1.363   9.365 -0.1302 -0.0199 -0.3966
18559SOL    HW157118   5.659   1.271   9.391 -0.3947  0.1417  0.2096
18559SOL    HW257119   5.702   1.366   9.281 -0.0083 -0.6830 -0.3526
18560SOL     OW57120   3.976   0.259   1.933 -0.3148  0.1320 -0.5592
18560SOL    HW157121   3.932   0.342   1.919 -0.2647  0.0450 -1.2844
18560SOL    HW257122   4.069   0.278   1.920 -0.1352  0.2636  0.7239
18561SOL     OW57123   6.633   2.970   9.085 -0.0526  0.2723 -0.2597
18561SOL    HW157124   6.728   2.961   9.092 -0.2433 -0.8146  1.6592
18561SOL    HW257125   6.598   2.905   9.145 -2.0715 -0.1242 -1.7648
18562SOL     OW57126   5.972   2.419   0.297 -0.3313 -0.6325  0.2518
18562SOL    HW157127   6.038   2.350   0.308  1.2258  0.7994  0.3579
18562SOL    HW257128   5.925   2.395   0.217  1.8133 -0.5840 -1.1072
18563SOL     OW57129   1.246   0.143   6.371 -0.1196  0.1264 -0.5007
18563SOL    HW157130   1.281   0.148   6.282  0.8495  0.1291 -0.1331
18563SOL    HW257131   1.207   0.229   6.386 -0.8600 -0.0827 -1.1368
18564SOL     OW57132   4.065   1.510   3.808  0.0365 -0.1254 -0.2043
18564SOL    HW157133   4.131   1.444   3.788  0.3698  0.2626 -0.3851
18564SOL    HW257134   4.007   1.467   3.872  1.5887  0.1854  1.5092
18565SOL     OW57135   5.461   1.290  10.862  0.4749 -0.3353 -0.2966
18565SOL    HW157136   5.453   1.384  10.880 -1.5984 -0.3652 -0.7698
18565SOL    HW257137   5.543   1.281  10.815  1.4962  0.9998  1.1264
18566SOL     OW57138   7.394   1.756   6.013  0.3647  0.0983  0.0046
18566SOL    HW157139   7.304   1.781   6.033 -0.2543 -0.7299 -1.6257
18566SOL    HW257140   7.422   1.817   5.945  0.8221 -0.0243  0.0782
18567SOL     OW57141   1.631   4.396  10.070  0.3617  0.2839  0.0738
18567SOL    HW157142   1.650   4.343  10.148 -0.0375 -0.4498 -0.3133
18567SOL    HW257143   1.555   4.353  10.030  0.3628  0.8418 -0.5445
18568SOL     OW57144   2.315   3.051   0.135 -0.1334 -0.0520 -0.5079
18568SOL    HW157145   2.378   3.011   0.195  1.1643  0.0874 -1.7241
18568SOL    HW257146   2.342   3.143   0.130 -0.5226  0.0422 -0.9421
18569SOL     OW57147   1.940   5.144   6.483  0.2422 -0.5614 -0.1281
18569SOL    HW157148   1.856   5.101   6.501  0.6071 -0.6112  1.6304
18569SOL    HW257149   2.000   5.108   6.549  1.7024 -0.6403 -1.4496
18570SOL     OW57150   4.591   1.242   7.342  0.4329  0.0650 -0.6630
18570SOL    HW157151   4.660   1.178   7.361  1.4696  0.1849 -3.5124
18570SOL    HW257152   4.533   1.197   7.280  1.0405  1.7023 -2.5305
18571SOL     OW57153   0.236   7.568   9.335  0.1166  0.1338 -0.2978
18571SOL    HW157154   0.295   7.532   9.268  0.9327  0.0220  0.4588
18571SOL    HW257155   0.236   7.662   9.319  0.8556  0.1853 -0.0434
18572SOL     OW57156   1.002   4.247   2.744  0.0336 -0.4276  0.0562
18572SOL    HW157157   0.914   4.249   2.781  0.1919  0.2113  0.4153
18572SOL    HW257158   1.001   4.317   2.678  0.7817  0.7799  1.2758
18573SOL     OW57159   6.923   6.796   3.594 -0.1356 -0.4075 -0.3974
18573SOL    HW157160   6.974   6.872   3.565 -1.2965  0.6971  0.3144
18573SOL    HW257161   6.837   6.809   3.554 -1.1588  0.1002  1.8174
18574SOL     OW57162   0.640   1.163   1.113 -0.0258 -0.2266 -0.0794
18574SOL    HW157163   0.711   1.227   1.111 -0.7967  0.6754  0.4918
18574SOL    HW257164   0.579   1.192   1.045  0.4282 -1.3612 -1.0128
18575SOL     OW57165   3.754   6.502  10.608  0.1517  0.4890 -0.3226
18575SOL    HW157166   3.719   6.569  10.550  0.9829 -0.2233 -1.6979
18575SOL    HW257167   3.845   6.491  10.579  0.3332 -0.4816  0.5710
18576SOL     OW57168   6.619   0.261   5.640 -0.1821 -0.4920  0.3545
18576SOL    HW157169   6.710   0.242   5.663 -0.5391 -1.4997  1.0039
18576SOL    HW257170   6.579   0.292   5.722 -0.5376 -0.4769  0.1801
18577SOL     OW57171   4.006   3.715  10.151 -0.0874  0.4036  0.4481
18577SOL    HW157172   4.076   3.730  10.088  0.2977  0.9039  0.9817
18577SOL    HW257173   3.931   3.688  10.098  1.1809 -2.7418  0.0298
18578SOL     OW57174   2.201   3.905   2.999 -0.4085 -0.0069 -0.7524
18578SOL    HW157175   2.109   3.882   2.984 -0.6941 -0.0204  0.7901
18578SOL    HW257176   2.239   3.827   3.038  0.5436 -0.3465 -2.2964
18579SOL     OW57177   4.434   0.886   6.128  0.1807 -0.4722 -0.1045
18579SOL    HW157178   4.348   0.876   6.168  0.0213  0.2218 -0.2528
18579SOL    HW257179   4.495   0.885   6.202 -0.0116 -0.3274  0.0575
18580SOL     OW57180   7.708   4.511   1.959  0.2779  0.0093  0.2112
18580SOL    HW157181   7.651   4.453   1.909 -0.5977  0.9707  0.0606
18580SOL    HW257182   7.660   4.594   1.964  1.1637  0.4965  1.0622
18581SOL     OW57183   2.520   3.716   8.293  0.0201 -0.9642 -0.0564
18581SOL    HW157184   2.613   3.709   8.269  0.1637  0.2272  0.1033
18581SOL    HW257185   2.520   3.768   8.373 -0.8833  0.3500 -0.8801
18582SOL     OW57186   3.555   6.780   3.144  0.2237 -0.0303 -0.1850
18582SOL    HW157187   3.582   6.859   3.098  1.7393  0.1970  1.0092
18582SOL    HW257188   3.465   6.798   3.172  0.1816  0.8375 -0.8305
18583SOL     OW57189   5.765   2.610  11.524  0.0136  0.1451  0.0691
18583SOL    HW157190   5.742   2.575  11.610  1.5620 -1.4224 -0.0810
18583SOL    HW257191   5.689   2.590  11.469 -0.8369  0.8317  0.9710
18584SOL     OW57192   1.685   7.197  11.357 -0.3518  0.6260  0.2179
18584SOL    HW157193   1.592   7.177  11.354 -0.0720 -0.8244  0.5717
18584SOL    HW257194   1.697   7.241  11.441 -0.5731 -0.0439  0.6079
18585SOL     OW57195   3.233   4.436  10.063 -0.0250 -0.0996 -0.3635
18585SOL    HW157196   3.302   4.479  10.114 -1.4074  0.3147  1.2421
18585SOL    HW257197   3.219   4.493   9.988 -0.5949  1.3573  0.8115
18586SOL     OW57198   3.593   5.660   4.312 -0.0502  0.2136  0.0967
18586SOL    HW157199   3.566   5.676   4.403 -0.2446  1.1731 -0.1251
18586SOL    HW257200   3.517   5.687   4.260 -0.0673 -0.6432 -0.3489
18587SOL     OW57201   4.958   7.057   7.615  0.0817 -0.2508  0.5228
18587SOL    HW157202   5.012   7.123   7.657  0.1454 -0.0589  0.1425
18587SOL    HW257203   4.870   7.072   7.649  0.0255  0.2697  0.1528
18588SOL     OW57204   0.504   0.509   1.653 -0.7645  0.0281 -0.3673
18588SOL    HW157205   0.418   0.537   1.620  0.6347  2.1288 -2.5821
18588SOL    HW257206   0.522   0.568   1.726 -0.6221  0.5435 -0.8134
18589SOL     OW57207   4.829   2.428   2.599  0.6234 -0.1829  0.6438
18589SOL    HW157208   4.857   2.371   2.671  0.0672 -0.7961  0.3930
18589SOL    HW257209   4.884   2.505   2.606  0.2719 -0.0232  2.0205
18590SOL     OW57210   7.174   2.794   2.640  0.0956  0.2297 -0.2629
18590SOL    HW157211   7.161   2.711   2.685 -2.1012 -1.1752 -3.1962
18590SOL    HW257212   7.088   2.836   2.640  0.8511  1.8795 -0.0886
18591SOL     OW57213   7.368   3.062   4.822  0.4922  0.8108  0.8713
18591SOL    HW157214   7.345   3.044   4.913  1.3601  0.8615  1.1038
18591SOL    HW257215   7.426   2.989   4.797 -0.3788  0.3523  0.1004
18592SOL     OW57216   1.989   0.153   8.909  0.1361  0.2404  0.0308
18592SOL    HW157217   2.031   0.088   8.966  1.0278  2.4733  2.0899
18592SOL    HW257218   1.968   0.104   8.829  0.9256 -2.5042  1.3556
18593SOL     OW57219   2.668   4.498   4.118  0.0522  0.4392  0.3754
18593SOL    HW157220   2.675   4.421   4.173  1.4456 -1.3744 -2.1449
18593SOL    HW257221   2.757   4.534   4.114  0.1303  0.1778 -1.0757
18594SOL     OW57222   4.016   0.298   9.393  0.2165  0.2486 -0.3181
18594SOL    HW157223   3.937   0.260   9.355 -0.1499  1.3238 -0.6669
18594SOL    HW257224   4.065   0.332   9.318  1.1039 -0.5524 -0.1222
18595SOL     OW57225   1.987   3.449   8.448 -0.4005  0.2584  0.7934
18595SOL    HW157226   2.056   3.438   8.383  1.5405  0.4966  2.6907
18595SOL    HW257227   1.974   3.544   8.453  1.7719  0.5391  2.8975
18596SOL     OW57228   3.637   5.380   2.138  0.3155 -0.2490 -0.3548
18596SOL    HW157229   3.643   5.474   2.153 -1.0640 -0.1677 -0.1674
18596SOL    HW257230   3.583   5.347   2.210 -0.2356 -0.9886 -1.0781
18597SOL     OW57231   2.593   0.283   1.105  0.2438  0.4258 -0.3788
18597SOL    HW157232   2.654   0.357   1.108  1.5097 -0.6063  1.8177
18597SOL    HW257233   2.518   0.311   1.157  0.6901  0.2112  0.3913
18598SOL     OW57234   1.600   5.375   3.730  0.2549 -0.1104  0.2925
18598SOL    HW157235   1.690   5.407   3.727 -0.2371  1.2877 -3.0681
18598SOL    HW257236   1.550   5.449   3.765  0.1986 -0.3742  0.7823
18599SOL     OW57237   4.370   4.092   5.105 -0.5746 -0.3051  0.6013
18599SOL    HW157238   4.466   4.091   5.106 -0.5305 -0.7604 -1.0565
18599SOL    HW257239   4.348   4.160   5.041 -1.3300 -0.8897  0.2289
18600SOL     OW57240   5.798   1.586   8.406 -0.3020  0.0859  0.9116
18600SOL    HW157241   5.834   1.610   8.320 -2.8427 -1.1182 -0.6164
18600SOL    HW257242   5.836   1.500   8.424  0.3356  0.3956  1.0568
18601SOL     OW57243   5.161   5.112   6.547 -0.4740 -0.1034 -0.7146
18601SOL    HW157244   5.108   5.191   6.560 -1.8545 -1.0715 -0.1718
18601SOL    HW257245   5.143   5.059   6.625  0.5701 -0.8717 -0.9903
18602SOL     OW57246   3.743   3.952   1.231 -0.2246  0.2909 -0.2879
18602SOL    HW157247   3.767   3.947   1.323  2.0916 -0.2368 -0.8668
18602SOL    HW257248   3.717   4.043   1.218 -1.9143  0.0583  1.1441
18603SOL     OW57249   0.072   2.468  10.842 -0.8360 -0.9662 -0.7421
18603SOL    HW157250   0.072   2.404  10.913  0.4336  0.2593  0.4140
18603SOL    HW257251   0.146   2.443  10.787  0.6194  0.2960  0.5337
18604SOL     OW57252   3.965   6.624   1.646 -0.4753  0.3244  0.6457
18604SOL    HW157253   3.988   6.548   1.592 -2.1753  0.5387 -0.4522
18604SOL    HW257254   4.033   6.627   1.713  0.0717 -1.7077  0.2570
18605SOL     OW57255   3.972   4.425   1.504  0.3520  0.2452 -0.2827
18605SOL    HW157256   3.944   4.431   1.413 -0.2802 -0.5163 -0.1618
18605SOL    HW257257   3.949   4.510   1.542 -1.9061 -0.3182 -0.1976
18606SOL     OW57258   3.660   0.590   8.008  0.3024 -0.2286  0.1560
18606SOL    HW157259   3.731   0.644   7.972 -0.5953  0.0297 -1.3104
18606SOL    HW257260   3.624   0.544   7.932 -0.1563 -1.4970  1.1008
18607SOL     OW57261   5.654   4.724   6.234 -0.1495 -0.6867 -0.7163
18607SOL    HW157262   5.636   4.630   6.232  0.5861 -0.8350 -0.9956
18607SOL    HW257263   5.736   4.731   6.283  0.0633 -0.2388 -1.1289
18608SOL     OW57264   2.613   1.650  10.249 -0.0028 -0.1761 -0.0373
18608SOL    HW157265   2.662   1.708  10.306 -0.9434  0.4639  0.1482
18608SOL    HW257266   2.650   1.666  10.162 -0.6812  1.2269 -0.1041
18609SOL     OW57267   7.257   5.902  10.761 -0.2085  0.0794  0.7585
18609SOL    HW157268   7.249   5.958  10.838 -0.6024 -0.2152  0.9367
18609SOL    HW257269   7.350   5.883  10.755  0.3987  2.9893 -0.9193
18610SOL     OW57270   4.001   2.835   4.366  0.8112 -0.1012 -0.2824
18610SOL    HW157271   3.912   2.871   4.358  0.7449 -0.2305 -0.1320
18610SOL    HW257272   4.056   2.911   4.379  0.7738  0.0174 -0.7782
18611SOL     OW57273   4.943   2.866   5.873 -0.1152  0.0738 -0.0983
18611SOL    HW157274   4.904   2.895   5.790  1.4285  1.3979 -0.4036
18611SOL    HW257275   4.954   2.946   5.923  1.9973 -0.2712  0.0541
18612SOL     OW57276   4.557   1.911   7.719  0.3578 -0.2165  0.4563
18612SOL    HW157277   4.481   1.955   7.754 -0.3879  0.1244 -1.4475
18612SOL    HW257278   4.532   1.818   7.716  0.3650 -0.2251  0.6860
18613SOL     OW57279   5.401   6.011   0.401 -0.3618  0.0284 -0.5064
18613SOL    HW157280   5.309   5.991   0.415 -0.0666 -0.6054  0.6914
18613SOL    HW257281   5.428   6.055   0.482  0.1172  1.2299 -1.2948
18614SOL     OW57282   4.984   4.674   3.977  0.5942  0.3732 -0.1058
18614SOL    HW157283   4.995   4.659   3.883  0.2263  0.0934 -0.1077
18614SOL    HW257284   4.995   4.587   4.016 -0.5757  0.2585 -0.0134
18615SOL     OW57285   3.669   5.617  11.604  0.2227  0.1432 -0.0369
18615SOL    HW157286   3.757   5.582  11.595  0.4485  0.6929 -0.0455
18615SOL    HW257287   3.681   5.696  11.657 -0.5230 -0.8708  1.7553
18616SOL     OW57288   2.444   2.077  10.346 -0.7302  0.4300 -0.2313
18616SOL    HW157289   2.538   2.065  10.359 -0.8075  0.4880  0.4072
18616SOL    HW257290   2.428   2.169  10.369 -0.9205  0.4575 -0.4678
18617SOL     OW57291   5.753   5.368   6.925 -0.4574  0.1938 -0.2676
18617SOL    HW157292   5.670   5.358   6.878 -1.9539 -0.8843  2.3607
18617SOL    HW257293   5.787   5.279   6.931  1.0013  0.6434 -1.3979
18618SOL     OW57294   1.236   4.524   8.466 -0.2436  0.2865  0.4901
18618SOL    HW157295   1.221   4.454   8.529 -0.8597  0.2965  0.3526
18618SOL    HW257296   1.245   4.603   8.520 -1.4829  0.4138  0.5367
18619SOL     OW57297   2.044   7.546  12.177  0.5394 -0.5992  0.2458
18619SOL    HW157298   2.057   7.554  12.271 -0.3032  0.4992  0.2818
18619SOL    HW257299   1.952   7.567  12.163  0.4000 -1.7370 -0.7218
18620SOL     OW57300   7.057   2.392   9.325  0.6038 -0.7789 -0.5845
18620SOL    HW157301   7.092   2.354   9.406 -2.4435  2.4494  2.5835
18620SOL    HW257302   6.967   2.361   9.322  0.4609 -0.2815 -2.4886
18621SOL     OW57303   7.554   2.080   8.375 -0.1443 -0.1307  0.2055
18621SOL    HW157304   7.639   2.103   8.414  0.0597 -2.3893  1.2774
18621SOL    HW257305   7.502   2.160   8.382  1.7541  1.2213 -0.1583
18622SOL     OW57306   6.826   5.141  10.997 -0.2942 -0.0975  0.0904
18622SOL    HW157307   6.858   5.114  11.083 -0.0486 -0.1427 -0.0154
18622SOL    HW257308   6.731   5.151  11.009 -0.1283  0.8827  0.6279
18623SOL     OW57309   7.503   4.947   8.770 -0.1104  0.2121 -0.6822
18623SOL    HW157310   7.564   4.898   8.714 -0.2401 -0.6831 -0.0710
18623SOL    HW257311   7.558   5.008   8.819 -0.1599  2.1328 -2.8613
18624SOL     OW57312   5.108   3.372   6.650 -0.3277 -0.1384 -0.1778
18624SOL    HW157313   5.031   3.424   6.675 -0.5213 -0.5477  0.0811
18624SOL    HW257314   5.117   3.307   6.720  1.5425  1.2302  0.9576
18625SOL     OW57315   4.060   5.439   6.810  0.1089 -0.3153 -0.7248
18625SOL    HW157316   4.027   5.361   6.766  0.7196 -0.1454 -1.4919
18625SOL    HW257317   4.102   5.490   6.741 -0.2401  0.6720 -0.2231
18626SOL     OW57318   5.438   5.789   0.170  0.2230 -0.5477 -0.4487
18626SOL    HW157319   5.461   5.840   0.248 -0.4404  1.5379 -1.5685
18626SOL    HW257320   5.522   5.755   0.138  0.7813  0.4461 -0.0771
18627SOL     OW57321   7.645   4.887   3.233  0.3701  0.0414 -0.3908
18627SOL    HW157322   7.638   4.901   3.328 -0.7065  0.5466 -0.5311
18627SOL    HW257323   7.650   4.975   3.196  0.1943 -0.1320 -0.8389
18628SOL     OW57324   1.943   5.181   6.931 -0.3424 -0.8964 -0.3714
18628SOL    HW157325   1.903   5.252   6.881  0.7308 -1.4247 -2.0792
18628SOL    HW257326   1.883   5.107   6.920 -0.4387 -0.8251 -0.3240
18629SOL     OW57327   0.912   3.882   8.218 -0.2057  0.0009  0.3056
18629SOL    HW157328   0.965   3.959   8.242  0.3303 -0.5945  1.1056
18629SOL    HW257329   0.951   3.810   8.268  0.5943 -1.2234 -1.9487
18630SOL     OW57330   4.303   3.936   8.173 -0.0680 -0.1186  0.0349
18630SOL    HW157331   4.289   3.968   8.084 -0.1525  0.8049  0.3729
18630SOL    HW257332   4.367   3.865   8.163  0.4246  0.4131 -0.6866
18631SOL     OW57333   2.596   1.946   6.277  0.0117 -0.0422 -0.2084
18631SOL    HW157334   2.662   1.899   6.328  0.9790  0.7869 -0.6494
18631SOL    HW257335   2.647   2.007   6.223 -0.9995 -0.6050 -1.8692
18632SOL     OW57336   2.156   5.896   6.224  0.1187  0.5984  0.0997
18632SOL    HW157337   2.101   5.970   6.198  0.6550  1.0582  0.2614
18632SOL    HW257338   2.094   5.824   6.237 -0.7555  1.6804  2.5426
18633SOL     OW57339   0.214   5.537  11.302 -0.1766 -0.6939 -0.2361
18633SOL    HW157340   0.203   5.620  11.255  0.9299 -0.3671  0.0563
18633SOL    HW257341   0.194   5.470  11.237 -0.5864 -0.2173 -0.6161
18634SOL     OW57342   6.956   6.775   1.516 -0.3094  0.5926  0.3697
18634SOL    HW157343   6.929   6.836   1.448 -1.0980  1.9138  1.8167
18634SOL    HW257344   6.886   6.778   1.581 -0.0744 -1.4033  0.8027
18635SOL     OW57345   6.146   7.521   3.121  0.4585 -0.1295 -0.1147
18635SOL    HW157346   6.121   7.443   3.171 -0.7685  2.6060  3.9403
18635SOL    HW257347   6.239   7.532   3.139  0.2990  0.1498  0.5522
18636SOL     OW57348   2.909   1.379   2.545  0.0579 -0.1464 -0.3481
18636SOL    HW157349   2.972   1.419   2.485  0.7864 -0.1138  0.4317
18636SOL    HW257350   2.916   1.285   2.529 -0.7705 -0.0666 -1.3045
18637SOL     OW57351   6.255   3.981   2.693  0.1415 -0.2218 -0.2390
18637SOL    HW157352   6.221   4.062   2.730  0.6031  0.5310 -1.3899
18637SOL    HW257353   6.233   3.986   2.600  0.1409 -1.4407 -0.3132
18638SOL     OW57354   7.301   1.217   5.224  0.5502 -0.1898 -0.3891
18638SOL    HW157355   7.256   1.248   5.303 -0.8331  1.2251 -1.6558
18638SOL    HW257356   7.356   1.145   5.254 -0.6269 -0.2931  1.6945
18639SOL     OW57357   0.856   6.079   9.056 -0.3028  0.3376 -0.8902
18639SOL    HW157358   0.887   6.166   9.033 -0.5243  0.5966 -0.2128
18639SOL    HW257359   0.804   6.091   9.136  1.7258 -0.7570  0.6857
18640SOL     OW57360   6.105   4.440   0.300 -0.1534  0.4237  0.0225
18640SOL    HW157361   6.149   4.387   0.365 -1.8981 -2.1609 -0.7519
18640SOL    HW257362   6.020   4.460   0.339 -0.4333  0.5869 -0.6554
18641SOL     OW57363   1.599   4.122   8.672  0.6770  0.1733  0.4338
18641SOL    HW157364   1.690   4.145   8.651  1.2070 -2.6153 -0.8218
18641SOL    HW257365   1.594   4.127   8.767  2.1388  0.4612  0.5202
18642SOL     OW57366   4.369   7.937   3.942 -0.3211 -0.1784 -0.0357
18642SOL    HW157367   4.352   8.017   3.892  0.6753  1.4608  2.1503
18642SOL    HW257368   4.415   7.880   3.880 -0.4181  1.1969 -1.4343
18643SOL     OW57369   5.037   2.535   8.736 -0.3050 -0.9055  0.1401
18643SOL    HW157370   5.082   2.482   8.670 -0.7811 -0.4324 -0.5836
18643SOL    HW257371   4.993   2.471   8.792  0.5025 -1.3290  0.3059
18644SOL     OW57372   7.920   4.376   4.791 -0.1709 -0.1893  0.4135
18644SOL    HW157373   7.875   4.458   4.808 -0.4289 -0.1093 -0.5670
18644SOL    HW257374   7.857   4.324   4.740  0.9521  0.1098 -1.3896
18645SOL     OW57375   6.717   2.578   0.343  0.5282 -0.5215  0.2910
18645SOL    HW157376   6.810   2.560   0.358  0.4448 -0.0962  1.4148
18645SOL    HW257377   6.677   2.571   0.430  0.1419  3.0654  0.5418
18646SOL     OW57378   3.743   6.308   1.755 -0.4909 -0.1146  0.1781
18646SOL    HW157379   3.806   6.334   1.822 -0.3032  0.0452 -0.0577
18646SOL    HW257380   3.721   6.390   1.710  1.8548 -0.6245 -2.1119
18647SOL     OW57381   4.316   0.988   8.557  0.0506 -0.1961 -0.0097
18647SOL    HW157382   4.313   1.075   8.516 -1.9409  0.3388  1.1354
18647SOL    HW257383   4.358   1.003   8.642 -1.3497 -0.0941  0.6856
18648SOL     OW57384   4.836   3.236   9.752  0.0018 -0.0002 -0.6691
18648SOL    HW157385   4.918   3.270   9.788  0.8788 -1.5080 -1.1360
18648SOL    HW257386   4.809   3.301   9.687  0.3127  0.9599  0.1322
18649SOL     OW57387   1.796   3.877   5.711 -0.1090  0.1882  0.1921
18649SOL    HW157388   1.726   3.938   5.733  0.4809  0.6874  0.6948
18649SOL    HW257389   1.871   3.905   5.763  0.3465 -0.6054 -0.0119
18650SOL     OW57390   3.904   0.584   1.065  0.1088 -0.4755  0.1343
18650SOL    HW157391   3.920   0.605   1.157  1.3439 -1.5784  0.2020
18650SOL    HW257392   3.949   0.653   1.016  0.9994 -0.8790  0.3636
18651SOL     OW57393   4.218   2.100  10.044  0.3211 -0.0977 -0.0423
18651SOL    HW157394   4.265   2.133  10.120  1.1901  0.4118 -0.7788
18651SOL    HW257395   4.205   2.007  10.063 -1.4326  0.4331  1.6858
18652SOL     OW57396   6.169   6.341  10.826  0.0682 -0.0601  0.4021
18652SOL    HW157397   6.089   6.291  10.842  0.6056 -1.0905 -0.0228
18652SOL    HW257398   6.160   6.374  10.736  0.1626 -0.2747  0.3125
18653SOL     OW57399   2.160   4.997   6.595 -0.2581 -0.3656  0.2147
18653SOL    HW157400   2.138   4.975   6.685  2.1796  0.0011  0.9895
18653SOL    HW257401   2.186   4.913   6.556 -2.2138 -0.6914 -0.4987
18654SOL     OW57402   1.137   1.895   8.838 -0.3981 -0.3714  0.2667
18654SOL    HW157403   1.221   1.921   8.877 -1.1061  1.9314  0.4377
18654SOL    HW257404   1.073   1.905   8.908 -1.5042  2.6876 -0.9817
18655SOL     OW57405   6.079   3.616   6.418  0.4439  0.8486 -0.3909
18655SOL    HW157406   6.127   3.696   6.442  0.1880  0.8791  0.0219
18655SOL    HW257407   6.002   3.617   6.474  0.0307  0.7241 -0.9548
18656SOL     OW57408   7.342   1.341   7.382  0.5301 -0.0134 -0.0519
18656SOL    HW157409   7.360   1.266   7.439  0.6241 -0.1779 -0.2944
18656SOL    HW257410   7.428   1.370   7.353  0.4317 -1.3372 -1.9052
18657SOL     OW57411   6.634   0.812  10.013  0.4351 -0.7632 -0.3835
18657SOL    HW157412   6.588   0.742  10.059 -0.3770 -1.3139 -1.9399
18657SOL    HW257413   6.606   0.892  10.057 -1.1561 -1.1827 -0.5643
18658SOL     OW57414   6.669   5.096   7.753  0.1588  0.3592  0.4854
18658SOL    HW157415   6.705   5.121   7.668 -0.6121  1.1072  0.3649
18658SOL    HW257416   6.739   5.046   7.795  0.6084  0.1311 -0.5156
18659SOL     OW57417   5.606   1.477   2.843 -0.0009  0.7045 -1.0473
18659SOL    HW157418   5.550   1.418   2.894 -1.0796  1.0986 -1.7263
18659SOL    HW257419   5.548   1.510   2.773  0.9279  1.5844 -1.4272
18660SOL     OW57420   7.828   3.193   4.299  0.0515 -0.1674 -0.1850
18660SOL    HW157421   7.879   3.272   4.284  0.5353 -0.5913 -0.7831
18660SOL    HW257422   7.740   3.215   4.267  0.8614 -0.7996 -3.1559
18661SOL     OW57423   0.492   0.295   9.611  0.2729 -0.1852  0.3201
18661SOL    HW157424   0.585   0.293   9.632  0.3883 -0.1969 -0.1813
18661SOL    HW257425   0.456   0.362   9.670  0.3645 -1.0689  1.4019
18662SOL     OW57426   6.293   2.724   0.427  0.4641 -0.4242 -0.5544
18662SOL    HW157427   6.212   2.678   0.453  1.4787 -0.8122  2.3694
18662SOL    HW257428   6.279   2.814   0.456  0.4384 -0.0570 -1.6612
18663SOL     OW57429   3.939   1.955   9.371 -0.3123  0.5061  0.2649
18663SOL    HW157430   3.968   1.867   9.395  1.5917  1.3553  1.3020
18663SOL    HW257431   3.937   2.003   9.454 -1.9420  1.3043 -0.1902
18664SOL     OW57432   6.428   2.968   3.256 -0.3340 -0.1916 -0.1468
18664SOL    HW157433   6.445   2.998   3.345  0.0884  0.5517 -0.4677
18664SOL    HW257434   6.515   2.952   3.219 -0.4625  0.3663 -0.7061
18665SOL     OW57435   6.111   4.516   3.602 -0.4819 -0.5805 -0.6754
18665SOL    HW157436   6.065   4.455   3.660 -1.4026  0.2939 -0.4603
18665SOL    HW257437   6.046   4.582   3.580  0.2333 -0.1788 -1.6661
18666SOL     OW57438   5.794   4.915   8.802  0.2108 -0.3463 -0.3009
18666SOL    HW157439   5.822   4.994   8.756  1.2741 -1.0184 -0.8466
18666SOL    HW257440   5.761   4.858   8.733  0.4262 -0.7797 -0.0510
18667SOL     OW57441   6.307   3.299   0.091 -0.3520 -0.2623 -0.2197
18667SOL    HW157442   6.273   3.218   0.130 -0.7881 -0.7781 -1.5951
18667SOL    HW257443   6.228   3.352   0.076 -0.2688 -0.3252 -0.9188
18668SOL     OW57444   1.211   7.830   7.213 -0.5574  0.2203  0.1984
18668SOL    HW157445   1.144   7.825   7.281 -0.9877  0.2220 -0.2182
18668SOL    HW257446   1.176   7.777   7.141 -0.6045  1.1007 -0.4376
18669SOL     OW57447   7.479   7.081   4.700 -0.0661 -0.2478 -0.2566
18669SOL    HW157448   7.559   7.098   4.750 -1.0302 -0.9778  1.6157
18669SOL    HW257449   7.439   7.167   4.691 -1.8041 -0.4172  3.7463
18670SOL     OW57450   5.262   6.029   4.757  0.0963  0.0590 -0.2795
18670SOL    HW157451   5.213   5.949   4.775  1.3657 -0.7102 -0.0899
18670SOL    HW257452   5.300   6.053   4.841 -0.0429  0.7088 -0.3977
18671SOL     OW57453   7.800   0.332   1.702 -0.3815 -0.4121 -0.1817
18671SOL    HW157454   7.737   0.389   1.658  0.7349  0.6332 -0.4908
18671SOL    HW257455   7.799   0.361   1.793 -1.2006 -1.1992  0.0686
18672SOL     OW57456   7.861   7.858  10.315  0.3190 -0.3598  0.4113
18672SOL    HW157457   7.903   7.796  10.256  0.1777  1.8713 -2.1980
18672SOL    HW257458   7.929   7.922  10.336 -0.4690  0.6023  0.1071
18673SOL     OW57459   7.222   0.286   2.118 -0.0261  0.1184  0.1122
18673SOL    HW157460   7.190   0.264   2.205 -0.3849 -2.0796 -0.5205
18673SOL    HW257461   7.298   0.229   2.105 -0.4880 -0.2245 -1.3154
18674SOL     OW57462   2.715   7.142   6.724  0.6731  0.1434 -0.5785
18674SOL    HW157463   2.649   7.192   6.676  0.2887 -1.0645 -1.3616
18674SOL    HW257464   2.685   7.145   6.815 -1.4793 -1.7464 -1.1055
18675SOL     OW57465   0.519   7.536   6.304  0.1754  0.1769  0.2131
18675SOL    HW157466   0.613   7.546   6.286  0.0454  0.5081 -0.2939
18675SOL    HW257467   0.477   7.604   6.252 -0.2033  1.3688  1.9701
18676SOL     OW57468   2.374   4.279   8.626 -0.1677  0.1541  0.3998
18676SOL    HW157469   2.421   4.340   8.684 -1.1524  1.4649 -0.1154
18676SOL    HW257470   2.438   4.253   8.561  1.0852 -1.6779  2.2563
18677SOL     OW57471   1.188   4.306  11.222 -0.2465 -0.3198 -0.6738
18677SOL    HW157472   1.188   4.219  11.261 -1.3626 -0.5749 -1.2140
18677SOL    HW257473   1.159   4.364  11.293  1.1599 -0.2572 -0.1066
18678SOL     OW57474   0.460   0.712   0.683  0.0431 -0.8041  0.7219
18678SOL    HW157475   0.447   0.697   0.776  1.1535 -0.0973  1.0063
18678SOL    HW257476   0.523   0.784   0.679 -1.9089  0.9444 -0.5555
18679SOL     OW57477   7.500   1.319  11.349  0.0041  0.2563  0.3111
18679SOL    HW157478   7.512   1.299  11.442  0.9358 -0.5174  0.0370
18679SOL    HW257479   7.500   1.415  11.345 -1.8644  0.3457  1.3120
18680SOL     OW57480   0.794   4.011   6.515  0.3551  0.2804  0.2556
18680SOL    HW157481   0.732   4.063   6.567 -1.1867 -1.8692  0.6784
18680SOL    HW257482   0.742   3.980   6.441  0.4254 -2.7762  1.3684
18681SOL     OW57483   3.748   7.740  10.714 -0.2584  0.1010 -0.4576
18681SOL    HW157484   3.807   7.717  10.785  1.0344  1.9933 -0.8587
18681SOL    HW257485   3.785   7.697  10.637 -1.2607 -1.3588 -0.1669
18682SOL     OW57486   4.548   1.849   8.295  0.0027  0.3361  0.7019
18682SOL    HW157487   4.593   1.930   8.320  2.1854 -0.3229 -0.7932
18682SOL    HW257488   4.503   1.871   8.214  0.0425  0.2464  0.6555
18683SOL     OW57489   1.723   0.385   9.777 -0.4596  0.0148 -0.2260
18683SOL    HW157490   1.768   0.301   9.761 -1.3616 -0.4286 -0.5226
18683SOL    HW257491   1.750   0.411   9.865 -0.7444 -0.9661  0.1631
18684SOL     OW57492   3.733   0.561   4.199 -0.1395 -0.0193  0.0647
18684SOL    HW157493   3.738   0.652   4.227  1.6687 -0.1668  0.3479
18684SOL    HW257494   3.769   0.511   4.273 -5.0812 -1.5049  1.8743
18685SOL     OW57495   1.461   6.124   4.317 -0.2021 -0.0774 -0.6796
18685SOL    HW157496   1.540   6.166   4.351 -0.3826  1.9425 -2.4897
18685SOL    HW257497   1.405   6.110   4.393  1.4103 -0.4558  0.4665
18686SOL     OW57498   6.708   0.966   2.880  0.3463  0.0248 -0.3720
18686SOL    HW157499   6.689   1.054   2.846  1.5741  0.5062  0.1367
18686SOL    HW257500   6.780   0.935   2.827 -0.3599 -0.8735 -0.8279
18687SOL     OW57501   2.806   4.379  10.804 -0.3550 -0.0429 -0.0306
18687SOL    HW157502   2.730   4.434  10.788 -0.7405 -0.6033 -0.1920
18687SOL    HW257503   2.878   4.440  10.818 -0.7880  0.4943 -0.1076
18688SOL     OW57504   0.990   2.780   5.274 -0.0728  0.2303 -0.0709
18688SOL    HW157505   1.012   2.687   5.273 -1.3716 -0.1660  1.6470
18688SOL    HW257506   1.002   2.809   5.184  1.8630 -1.2084 -0.3320
18689SOL     OW57507   5.209   1.508   6.648 -0.1364  0.3385  0.2958
18689SOL    HW157508   5.210   1.591   6.600  0.0524  1.1155  1.5774
18689SOL    HW257509   5.152   1.524   6.723 -0.6638 -0.9298  0.1832
18690SOL     OW57510   5.748   0.480   9.081  0.5128 -0.7070 -0.3085
18690SOL    HW157511   5.784   0.444   9.162  1.3840  0.4972 -0.1348
18690SOL    HW257512   5.824   0.490   9.023  0.1329 -0.1164 -0.7154
18691SOL     OW57513   5.201   3.533   4.538 -0.0178  0.2016 -0.4522
18691SOL    HW157514   5.164   3.447   4.519 -1.2036  0.9191 -1.5790
18691SOL    HW257515   5.194   3.581   4.455 -0.4478  1.7443  0.4237
18692SOL     OW57516   5.241   2.858  11.635  0.1132 -0.6635  0.7278
18692SOL    HW157517   5.175   2.831  11.699  1.0427 -1.1212  1.5231
18692SOL    HW257518   5.267   2.777  11.592 -0.0508 -0.4428  0.2070
18693SOL     OW57519   6.729   4.597  10.371 -0.0787 -0.1878  0.0953
18693SOL    HW157520   6.716   4.681  10.327 -0.1127 -0.3741 -0.2536
18693SOL    HW257521   6.805   4.558  10.327  0.8473  0.2948  1.2153
18694SOL     OW57522   1.256   5.395   0.533 -0.5826 -0.9184  0.0025
18694SOL    HW157523   1.307   5.336   0.477 -0.7977 -1.9676  0.8782
18694SOL    HW257524   1.165   5.370   0.518 -0.8330  0.4759 -1.0181
18695SOL     OW57525   2.732   5.850   8.232  0.7138 -0.1751  0.3717
18695SOL    HW157526   2.766   5.933   8.198 -1.0894 -0.0114 -1.2388
18695SOL    HW257527   2.752   5.786   8.164 -2.7201  0.1028 -1.1318
18696SOL     OW57528   7.563   3.038   6.976 -0.2564  0.1917  0.7438
18696SOL    HW157529   7.488   3.008   6.925  0.6158 -1.1677  0.2176
18696SOL    HW257530   7.550   3.133   6.984 -1.4788  0.1277 -0.2221
18697SOL     OW57531   0.396   3.415   9.750 -0.2583 -0.0848  0.1151
18697SOL    HW157532   0.440   3.466   9.818  2.1491  1.5574 -2.4264
18697SOL    HW257533   0.449   3.337   9.741  0.8023  0.7446 -1.2812
18698SOL     OW57534   6.887   4.933   7.865 -0.2202 -0.3211  0.1282
18698SOL    HW157535   6.977   4.921   7.895  0.2883 -2.3079 -1.8913
18698SOL    HW257536   6.878   4.872   7.791 -2.7246  1.0009 -0.7837
18699SOL     OW57537   4.145   5.988   7.866 -0.4180 -0.2836 -0.2409
18699SOL    HW157538   4.061   6.004   7.909  0.7227 -0.4081  2.2522
18699SOL    HW257539   4.132   5.908   7.816 -1.5925 -0.7570  0.7666
18700SOL     OW57540   0.742   3.496  10.871 -0.3210 -0.4025 -0.2383
18700SOL    HW157541   0.693   3.427  10.827  0.8596 -1.5490  0.1819
18700SOL    HW257542   0.789   3.452  10.941 -0.0667  0.9511  0.4860
18701SOL     OW57543   7.466   1.802   6.478 -0.1702  0.3333  0.1322
18701SOL    HW157544   7.459   1.744   6.554 -0.0554 -0.6659 -0.5957
18701SOL    HW257545   7.378   1.840   6.469 -0.4239 -0.2157  0.2444
18702SOL     OW57546   7.400   5.116   9.642  0.6488 -0.0682 -0.5138
18702SOL    HW157547   7.489   5.150   9.651 -0.5664  3.0336  1.1740
18702SOL    HW257548   7.363   5.167   9.570 -0.1691 -0.4241 -0.3449
18703SOL     OW57549   2.647   6.612   1.493 -0.4293  0.2586  0.1418
18703SOL    HW157550   2.650   6.588   1.400 -2.2380  3.1408 -0.7897
18703SOL    HW257551   2.562   6.581   1.523  0.0476 -0.4412  0.7761
18704SOL     OW57552   4.299   2.054   3.982  0.1239 -0.8781 -0.2218
18704SOL    HW157553   4.372   1.992   3.970  0.0648 -0.6777 -1.9888
18704SOL    HW257554   4.335   2.123   4.037  1.5379 -0.4556 -1.5882
18705SOL     OW57555   4.216   0.021   8.340  0.0882 -0.0603 -0.3479
18705SOL    HW157556   4.263   0.003   8.259  0.5950  4.0094 -1.1918
18705SOL    HW257557   4.273  -0.011   8.409  0.9198 -1.1917 -1.5200
18706SOL     OW57558   2.241   4.369  11.220 -0.1282  0.7925  0.0186
18706SOL    HW157559   2.320   4.387  11.169 -0.4756  2.5908  0.0356
18706SOL    HW257560   2.179   4.334  11.156  0.6546 -0.6577  0.0099
18707SOL     OW57561   2.756   5.567   9.535 -0.2544  0.1472 -0.2000
18707SOL    HW157562   2.822   5.566   9.465 -0.4600  0.5262 -0.4004
18707SOL    HW257563   2.686   5.623   9.502  0.0787  1.1342  0.6987
18708SOL     OW57564   1.297   5.423   6.667  0.3660 -0.2314 -0.7656
18708SOL    HW157565   1.225   5.486   6.662 -0.8003 -1.1017  2.3480
18708SOL    HW257566   1.373   5.475   6.691 -0.1114  0.2818 -0.3263
18709SOL     OW57567   0.369   0.224   5.638 -0.3796 -0.2599  0.1578
18709SOL    HW157568   0.399   0.278   5.711  0.9429 -1.2615  0.3951
18709SOL    HW257569   0.369   0.284   5.563 -0.0292  0.3376  0.6211
18710SOL     OW57570   4.227   1.301   2.562  0.4178 -0.5401 -0.6589
18710SOL    HW157571   4.148   1.255   2.589  0.8347 -1.5774 -1.1478
18710SOL    HW257572   4.249   1.357   2.637  0.5424 -2.0066  0.4316
18711SOL     OW57573   6.181   7.261   5.163 -0.0101  0.3378 -0.4267
18711SOL    HW157574   6.174   7.220   5.077  0.6917  0.4995 -0.5707
18711SOL    HW257575   6.232   7.200   5.216 -2.0477 -0.6540  0.4753
18712SOL     OW57576   7.355   7.924   7.418  0.3153  0.1966  0.1659
18712SOL    HW157577   7.406   8.005   7.408  1.8926 -0.6608  0.7749
18712SOL    HW257578   7.292   7.944   7.487  0.2886  1.0782 -0.0974
18713SOL     OW57579   3.908   1.192  10.383  0.2539  0.1587  0.7960
18713SOL    HW157580   3.943   1.127  10.322 -1.8970 -1.0190  0.7291
18713SOL    HW257581   3.974   1.197  10.452  1.9487  0.2840 -0.7449
18714SOL     OW57582   0.361   1.097   3.315 -0.2114  0.4417 -0.0680
18714SOL    HW157583   0.440   1.125   3.268 -1.1806 -0.1699 -2.1812
18714SOL    HW257584   0.369   1.002   3.322 -0.6684  0.3946 -0.1392
18715SOL     OW57585   0.912   1.808   9.387 -0.3448 -0.2402 -0.3056
18715SOL    HW157586   0.973   1.820   9.459 -1.0438 -0.6745  0.3693
18715SOL    HW257587   0.886   1.897   9.363 -0.3125 -0.1077  0.1495
18716SOL     OW57588   1.613   7.294   9.096  0.0080 -0.0600 -0.2026
18716SOL    HW157589   1.636   7.324   9.008 -3.0756 -0.1723 -1.1647
18716SOL    HW257590   1.658   7.356   9.155  1.0704  0.8247 -1.8507
18717SOL     OW57591   1.354   7.866   6.086  0.6220  0.0373  0.0038
18717SOL    HW157592   1.357   7.832   5.997  0.8920  0.8163 -0.2905
18717SOL    HW257593   1.379   7.958   6.078 -1.1229  0.6118  0.6244
18718SOL     OW57594   7.425   0.196   1.466  0.0940  0.4007  0.0539
18718SOL    HW157595   7.417   0.110   1.423  4.1485 -0.4161  0.5233
18718SOL    HW257596   7.442   0.174   1.558  1.3070  1.6626  0.1539
18719SOL     OW57597   2.117   4.596  11.760 -0.3186 -0.2512 -0.3423
18719SOL    HW157598   2.077   4.510  11.772 -2.6285  0.9608  1.4741
18719SOL    HW257599   2.043   4.656  11.751  1.1741  1.7924  0.2387
18720SOL     OW57600   2.008   0.977   6.451  0.2078  0.4937  0.0975
18720SOL    HW157601   1.941   0.913   6.476 -0.4723  0.9738 -0.4469
18720SOL    HW257602   2.054   0.997   6.533  0.1202 -0.3334  0.3533
18721SOL     OW57603   2.897   7.848   6.565  0.0970 -0.6980  0.7737
18721SOL    HW157604   2.979   7.805   6.589 -0.6423 -1.3912  2.2319
18721SOL    HW257605   2.838   7.828   6.638 -2.2288 -2.5174 -1.4698
18722SOL     OW57606   2.250   1.506  11.408 -0.2829 -0.2978  0.1264
18722SOL    HW157607   2.287   1.553  11.482  0.2653 -1.3126  0.5003
18722SOL    HW257608   2.233   1.418  11.440  0.8428 -1.0404 -1.1887
18723SOL     OW57609   5.771   4.999   9.842 -0.0665 -0.1996  0.0611
18723SOL    HW157610   5.676   4.992   9.843 -0.1283  0.0583 -1.4229
18723SOL    HW257611   5.788   5.093   9.851  0.0703 -0.3088  0.9486
18724SOL     OW57612   0.403   7.640  12.037  0.2599  0.0543  0.0526
18724SOL    HW157613   0.420   7.562  12.090 -0.4803 -0.7841 -0.9050
18724SOL    HW257614   0.364   7.606  11.956 -0.4590  1.4507 -0.2148
18725SOL     OW57615   7.021   3.716   1.699  0.0682 -0.2889 -0.4953
18725SOL    HW157616   6.937   3.733   1.742  0.7988  0.2031  0.7977
18725SOL    HW257617   7.050   3.802   1.667  1.0398 -0.0456  0.9319
18726SOL     OW57618   4.554   4.995  12.426  0.0660 -0.5705 -0.1780
18726SOL    HW157619   4.495   5.059  12.385 -0.6176 -0.0899  1.4614
18726SOL    HW257620   4.539   5.006  12.520  1.5081 -1.6801  0.2133
18727SOL     OW57621   3.781   7.357   6.803  0.3246 -0.2771 -0.7575
18727SOL    HW157622   3.842   7.283   6.802 -0.7702 -1.1984 -1.3171
18727SOL    HW257623   3.748   7.360   6.893  1.5771  0.5779 -0.2992
18728SOL     OW57624   6.498   3.563   8.190 -0.1084  0.4007 -0.4735
18728SOL    HW157625   6.536   3.619   8.258 -0.7980 -0.7846  0.9425
18728SOL    HW257626   6.418   3.529   8.230  0.8151 -2.4209 -0.8359
18729SOL     OW57627   4.953   5.259  10.372  0.0527  0.2893 -0.1082
18729SOL    HW157628   4.946   5.177  10.420  2.4829  0.3349  0.4906
18729SOL    HW257629   4.880   5.312  10.404 -0.4941 -0.9839  0.8336
18730SOL     OW57630   1.157   4.031  11.301 -0.1009  0.6880  0.0901
18730SOL    HW157631   1.225   3.973  11.337 -0.5204  0.2474  0.1825
18730SOL    HW257632   1.075   3.989  11.325 -0.4007  0.4452 -1.2678
18731SOL     OW57633   6.194   2.820   9.580 -0.8544  0.1686 -0.3409
18731SOL    HW157634   6.234   2.795   9.497 -1.5547  0.0617 -0.6549
18731SOL    HW257635   6.176   2.914   9.571  1.2499  0.7095  0.6186
18732SOL     OW57636   5.754   3.150  10.684  0.1844 -0.0144 -0.7991
18732SOL    HW157637   5.816   3.078  10.670 -0.5801 -0.6774 -0.8317
18732SOL    HW257638   5.672   3.107  10.708  0.2696  0.8860  1.4219
18733SOL     OW57639   1.482   3.634  10.533 -0.4948  0.4016  0.0206
18733SOL    HW157640   1.521   3.555  10.498 -0.8135  0.5568 -0.7021
18733SOL    HW257641   1.479   3.695  10.459  0.4483  1.3669  0.7500
18734SOL     OW57642   2.900   3.209   6.453 -0.1693 -0.2482 -0.1118
18734SOL    HW157643   2.936   3.186   6.538 -0.3506 -2.3637 -0.5579
18734SOL    HW257644   2.805   3.202   6.465 -0.3082  1.2467 -0.0507
18735SOL     OW57645   2.150   6.849   7.772 -0.3680 -0.1993 -0.1055
18735SOL    HW157646   2.146   6.942   7.792 -1.5722 -0.2536 -0.0462
18735SOL    HW257647   2.169   6.845   7.678  1.1767  0.0712  0.1614
18736SOL     OW57648   4.484   5.530   7.923  0.0821  0.3269  0.1107
18736SOL    HW157649   4.531   5.450   7.946  1.5760  0.5417 -1.8532
18736SOL    HW257650   4.531   5.600   7.969  0.7340  0.3660 -0.5855
18737SOL     OW57651   2.987   3.460  11.080 -0.9127 -0.3717 -0.0229
18737SOL    HW157652   3.044   3.384  11.068 -1.1292 -0.6707  0.7691
18737SOL    HW257653   2.931   3.436  11.155  0.3488  1.3474  1.5535
18738SOL     OW57654   3.574   1.330   3.493 -0.1761 -0.2517 -0.7586
18738SOL    HW157655   3.490   1.309   3.452 -0.4573 -1.1058  0.2171
18738SOL    HW257656   3.552   1.359   3.581  0.4393  1.3446 -1.0913
18739SOL     OW57657   6.099   0.525  12.305 -0.0869  0.2464 -0.3666
18739SOL    HW157658   6.115   0.528  12.400 -0.9832 -1.8129 -0.0983
18739SOL    HW257659   6.186   0.513  12.267  0.1552 -0.0947  0.2842
18740SOL     OW57660   5.044   6.651   6.688 -0.0872 -0.5910  0.7340
18740SOL    HW157661   5.110   6.692   6.743  1.9845 -3.4863  0.6172
18740SOL    HW257662   5.088   6.635   6.605 -0.9398 -2.4443  0.5790
18741SOL     OW57663   4.093   4.731   6.473 -0.1352 -0.0888 -0.2894
18741SOL    HW157664   4.148   4.763   6.545 -1.1263 -1.6169  1.2065
18741SOL    HW257665   4.022   4.794   6.468 -0.5199 -0.4242  0.6754
18742SOL     OW57666   0.982   1.349   0.582 -0.1913  0.0595 -0.0558
18742SOL    HW157667   1.078   1.348   0.577 -0.1467  0.3421  0.6064
18742SOL    HW257668   0.958   1.257   0.595 -0.1144 -0.2229 -1.7712
18743SOL     OW57669   0.775   0.202   7.330  0.1283 -0.1967 -0.2313
18743SOL    HW157670   0.837   0.177   7.398 -0.3995 -1.6491 -0.2554
18743SOL    HW257671   0.709   0.255   7.376  1.1752  1.0783 -0.1463
18744SOL     OW57672   5.243   1.465   0.824 -0.1961  0.3046 -0.3781
18744SOL    HW157673   5.244   1.414   0.743  1.4748  1.7630 -1.3589
18744SOL    HW257674   5.336   1.474   0.848 -0.4801  2.1568  0.1894
18745SOL     OW57675   7.508   3.329   6.739  0.7862  0.0718 -0.1408
18745SOL    HW157676   7.483   3.314   6.830 -1.4766 -0.4869 -0.7804
18745SOL    HW257677   7.574   3.398   6.743 -0.0969  0.8899  1.8466
18746SOL     OW57678   4.648   1.040   0.050  0.1189  0.2063 -0.7252
18746SOL    HW157679   4.584   1.089  -0.002  0.7997  0.2207 -1.5766
18746SOL    HW257680   4.692   1.107   0.102 -1.4061  0.0550  0.8499
18747SOL     OW57681   2.510   6.068   5.031  0.7807 -0.0234  0.3092
18747SOL    HW157682   2.415   6.064   5.046  0.5070  0.7812 -1.0489
18747SOL    HW257683   2.523   6.020   4.949  1.6502 -0.6471  0.7922
18748SOL     OW57684   5.089   7.571  10.808 -0.3471 -0.1547 -0.0577
18748SOL    HW157685   4.994   7.564  10.803 -0.6580  2.9320 -0.6938
18748SOL    HW257686   5.105   7.642  10.870  1.5272 -0.4258 -0.1497
18749SOL     OW57687   2.972   6.979   9.269 -0.1571  0.5644 -0.1646
18749SOL    HW157688   3.033   7.052   9.270  0.3994  0.1129 -0.3469
18749SOL    HW257689   2.928   6.985   9.184 -0.4867  0.9819  0.0326
18750SOL     OW57690   4.056   4.863   3.386  0.5089 -0.1557 -0.0438
18750SOL    HW157691   3.967   4.835   3.407  0.9290 -2.2820 -0.7933
18750SOL    HW257692   4.100   4.870   3.471 -0.1457  0.0555  0.2799
18751SOL     OW57693   5.527   2.813  12.284  0.3043 -0.6955  0.1342
18751SOL    HW157694   5.458   2.841  12.224  0.5740  0.5530  0.3760
18751SOL    HW257695   5.563   2.734  12.243 -1.1725 -1.3177 -0.0499
18752SOL     OW57696   3.945   2.655   5.832 -0.2406 -0.0533  0.1736
18752SOL    HW157697   3.974   2.652   5.741 -1.8643  2.4645 -0.5194
18752SOL    HW257698   3.899   2.572   5.845 -0.9259 -0.0115 -1.6687
18753SOL     OW57699   4.851   1.942   4.546  0.7288  0.0451  0.0716
18753SOL    HW157700   4.758   1.956   4.567  0.6097 -0.4280 -0.1362
18753SOL    HW257701   4.898   1.998   4.608  0.3537 -0.6640  1.0228
18754SOL     OW57702   7.427   7.098   5.623  0.4598 -0.0031 -0.2404
18754SOL    HW157703   7.502   7.044   5.598  0.4028  0.5726 -1.8144
18754SOL    HW257704   7.384   7.050   5.694  2.3434 -0.3037  0.7464
18755SOL     OW57705   1.414   3.747   7.784  0.1145 -0.1969  0.1158
18755SOL    HW157706   1.437   3.839   7.792  0.0770 -0.3316  2.1406
18755SOL    HW257707   1.451   3.705   7.862  1.2857 -2.1703 -1.3866
18756SOL     OW57708   2.862   3.435   5.630 -0.0574  0.4350 -0.4380
18756SOL    HW157709   2.848   3.416   5.723  0.7480 -0.4511 -0.4881
18756SOL    HW257710   2.955   3.455   5.623  0.5579 -2.4339 -1.5094
18757SOL     OW57711   0.869   0.556   5.948  0.0210  0.0813 -0.1601
18757SOL    HW157712   0.935   0.488   5.951 -2.2532 -2.2607  0.2126
18757SOL    HW257713   0.897   0.614   5.877  1.5662 -1.7508 -1.1318
18758SOL     OW57714   0.565   4.166   3.769  0.6616 -0.3856 -1.0719
18758SOL    HW157715   0.542   4.142   3.680  0.9438 -1.0156 -0.9810
18758SOL    HW257716   0.482   4.191   3.810  0.7126  1.3520 -1.9167
18759SOL     OW57717   3.068   0.545  11.058 -0.2639 -0.8279  0.0069
18759SOL    HW157718   3.008   0.508  11.124  1.6391 -1.5519  1.4319
18759SOL    HW257719   3.041   0.504  10.976 -2.0817 -0.6644  0.4825
18760SOL     OW57720   3.902   1.217   5.548  0.0619 -0.0802  0.0531
18760SOL    HW157721   3.875   1.262   5.628 -0.5163 -1.1732  0.5031
18760SOL    HW257722   3.872   1.127   5.560  0.7018 -0.4657 -1.0439
18761SOL     OW57723   2.408   6.188   6.643  0.3781 -0.2949  0.1165
18761SOL    HW157724   2.325   6.142   6.637 -0.3360  0.9578  0.1964
18761SOL    HW257725   2.468   6.137   6.588 -0.8865 -0.2376 -1.3803
18762SOL     OW57726   0.970   7.016   8.423 -0.5286 -0.1543  0.3297
18762SOL    HW157727   0.909   6.947   8.451  1.2707 -1.1160  2.1307
18762SOL    HW257728   1.032   7.025   8.495  2.0192  0.1210 -1.7162
18763SOL     OW57729   0.333   6.960  10.806 -0.2841 -0.3869 -0.1950
18763SOL    HW157730   0.340   6.881  10.859  1.2932  0.6259  1.2278
18763SOL    HW257731   0.421   6.997  10.806 -0.9278  1.2693 -0.9651
18764SOL     OW57732   6.586   5.174   2.126 -0.1205 -0.5363 -0.5143
18764SOL    HW157733   6.503   5.208   2.161 -0.5628 -1.2288 -0.8821
18764SOL    HW257734   6.626   5.250   2.084  0.5328  0.4008  1.6349
18765SOL     OW57735   3.903   7.676   6.911  0.2434 -0.7424 -0.3315
18765SOL    HW157736   3.911   7.709   6.822  0.4129  1.0555  0.3120
18765SOL    HW257737   3.809   7.670   6.927  0.1616  0.9697  0.0355
18766SOL     OW57738   1.839   7.508   9.137  0.0345 -0.2332  0.6536
18766SOL    HW157739   1.933   7.527   9.131 -0.0898 -0.0767 -1.4721
18766SOL    HW257740   1.829   7.465   9.222  1.3363  3.2972  2.7794
18767SOL     OW57741   4.130   5.389   0.296  0.2582  0.9179  1.0169
18767SOL    HW157742   4.219   5.420   0.312  0.9080  0.1999 -0.9035
18767SOL    HW257743   4.098   5.442   0.223 -0.0800 -0.2314  0.2955
18768SOL     OW57744   0.942   4.419  11.673  0.2156 -0.1238 -0.3627
18768SOL    HW157745   0.867   4.407  11.731  0.4537  0.3403  0.0452
18768SOL    HW257746   1.016   4.380  11.719  0.5864  1.0359  0.0702
18769SOL     OW57747   2.929   2.934   8.669 -0.3303  0.0713  0.3475
18769SOL    HW157748   2.887   2.970   8.591  0.4357 -0.3365 -0.2711
18769SOL    HW257749   2.859   2.927   8.734 -1.0339  0.1635 -0.3897
18770SOL     OW57750   0.343   7.755   5.867 -0.0902 -0.1213  0.4596
18770SOL    HW157751   0.407   7.825   5.879 -3.4638  2.8388  3.8541
18770SOL    HW257752   0.319   7.730   5.956 -3.0830 -1.5886 -0.6404
18771SOL     OW57753   5.945   5.748   1.784 -0.3402  0.1350 -0.0367
18771SOL    HW157754   5.871   5.695   1.757 -0.0654  0.8995 -2.5538
18771SOL    HW257755   6.018   5.685   1.793 -0.6079 -0.2321 -0.4212
18772SOL     OW57756   0.889   5.134   6.121 -0.7362  0.0991 -0.0188
18772SOL    HW157757   0.907   5.069   6.053  0.7290 -0.0543  0.4919
18772SOL    HW257758   0.970   5.182   6.131 -1.0744  0.4302  1.2921
18773SOL     OW57759   4.885   3.513   8.499  0.0283  0.6306 -0.0359
18773SOL    HW157760   4.794   3.537   8.512 -0.4575 -1.6991  1.5770
18773SOL    HW257761   4.930   3.544   8.578  0.3004  0.3230 -0.0651
18774SOL     OW57762   1.496   2.920   0.003 -0.0133 -0.2815 -0.6394
18774SOL    HW157763   1.445   2.843   0.027  1.3823 -1.1573 -0.3884
18774SOL    HW257764   1.551   2.892  -0.069  1.4949  0.0581  0.3400
18775SOL     OW57765   3.596   7.919   5.013  0.0280 -0.1357 -0.4835
18775SOL    HW157766   3.570   7.851   4.951 -2.2033 -0.6509  0.8842
18775SOL    HW257767   3.524   7.922   5.076 -0.3200  4.0042 -0.8347
18776SOL     OW57768   6.773   3.279   3.444  0.5147  0.3617 -0.1253
18776SOL    HW157769   6.722   3.211   3.401 -2.4913  1.4947  1.3632
18776SOL    HW257770   6.751   3.360   3.396 -0.3786  1.1122  1.4705
18777SOL     OW57771   0.771   6.008   6.469 -0.0377  0.0013  0.7766
18777SOL    HW157772   0.807   5.920   6.457 -1.0082 -0.3215  0.0962
18777SOL    HW257773   0.754   6.039   6.381 -0.2676  0.6334  1.0388
18778SOL     OW57774   2.097   1.661   9.841  0.4724  0.0015 -0.0107
18778SOL    HW157775   2.181   1.665   9.886  1.2069 -0.2479 -1.2938
18778SOL    HW257776   2.064   1.573   9.860  0.5339  0.0702  0.4274
18779SOL     OW57777   4.918   1.212  11.643  0.0696  0.4026 -0.4347
18779SOL    HW157778   4.920   1.123  11.609  0.7732  0.4985 -0.6579
18779SOL    HW257779   4.825   1.234  11.648 -0.1522 -0.7235  0.6344
18780SOL     OW57780   0.516   6.644  11.136  0.0278  0.6683 -0.2860
18780SOL    HW157781   0.564   6.565  11.110 -1.6147 -0.4610 -0.0472
18780SOL    HW257782   0.582   6.700  11.177  1.1732 -0.7143 -0.1764
18781SOL     OW57783   1.187   5.254   4.525  0.6663 -0.2620  0.0774
18781SOL    HW157784   1.229   5.169   4.510  1.0443 -0.1169  0.3075
18781SOL    HW257785   1.210   5.277   4.615 -0.3729 -0.4422  0.4000
18782SOL     OW57786   5.395   3.135   3.510 -0.1840 -0.3495 -0.3850
18782SOL    HW157787   5.407   3.049   3.468 -1.3974 -0.5243 -0.3963
18782SOL    HW257788   5.350   3.115   3.592 -1.8871  0.3922 -1.0959
18783SOL     OW57789   7.525   4.887   7.850  0.0892  0.5510 -0.5241
18783SOL    HW157790   7.564   4.887   7.938  0.3709  0.9448 -0.6483
18783SOL    HW257791   7.431   4.890   7.866  0.1511  1.1482 -0.2353
18784SOL     OW57792   3.318   4.552   3.872  0.3461 -0.3738 -0.0515
18784SOL    HW157793   3.331   4.643   3.845  1.5099 -0.4696  0.1485
18784SOL    HW257794   3.399   4.507   3.847  0.8963 -0.7767  2.2247
18785SOL     OW57795   0.084   6.599  11.041 -0.4607 -0.3152  0.2197
18785SOL    HW157796   0.034   6.528  11.001 -0.7421 -1.0370  1.7648
18785SOL    HW257797   0.021   6.645  11.096  0.2807 -0.5237  1.2858
18786SOL     OW57798   2.788   4.085   7.199 -0.1744 -0.2906  0.2352
18786SOL    HW157799   2.864   4.036   7.232  1.2503  1.2959 -0.5582
18786SOL    HW257800   2.713   4.043   7.242  0.9788 -2.7894  0.0095
18787SOL     OW57801   6.694   5.975   7.982 -0.5553 -0.3540  0.1165
18787SOL    HW157802   6.691   5.926   7.899 -1.8996  2.1908 -1.4559
18787SOL    HW257803   6.604   6.004   7.996 -0.1103  0.3130  1.8403
18788SOL     OW57804   1.380   2.959   6.776  0.0931  0.0546 -0.6780
18788SOL    HW157805   1.345   3.025   6.716 -0.6332 -0.1761 -0.5151
18788SOL    HW257806   1.385   2.879   6.725 -1.1078 -0.2958 -0.2881
18789SOL     OW57807   0.289   4.588   5.187  0.1137 -0.0055 -0.4732
18789SOL    HW157808   0.267   4.599   5.279  0.4194 -0.8338 -0.2940
18789SOL    HW257809   0.337   4.668   5.164  3.1228 -1.1965  1.0497
18790SOL     OW57810   1.744   4.631   1.704  0.3941  1.2154 -0.3196
18790SOL    HW157811   1.761   4.702   1.642  1.3620  1.1735 -0.1268
18790SOL    HW257812   1.758   4.670   1.790  2.4143  0.4804 -0.2438
18791SOL     OW57813   7.916   7.817   9.429  0.4788  0.3607 -0.1804
18791SOL    HW157814   7.943   7.810   9.337  1.3703  2.1858 -0.0936
18791SOL    HW257815   7.993   7.852   9.473 -0.0861 -0.0943  1.2086
18792SOL     OW57816   0.521   5.521   6.628  0.4240  0.3164 -0.3945
18792SOL    HW157817   0.485   5.432   6.639  0.9860  0.1443  0.1193
18792SOL    HW257818   0.444   5.577   6.620  0.0488 -0.4359 -2.7842
18793SOL     OW57819   6.835   7.067   0.691  0.0097  0.0915 -0.0688
18793SOL    HW157820   6.800   7.096   0.775  0.0530  0.3057 -0.1236
18793SOL    HW257821   6.793   6.983   0.675  0.0669  0.0101  0.2085
18794SOL     OW57822   2.620   7.527   6.761 -0.0043  0.1191 -0.1298
18794SOL    HW157823   2.571   7.519   6.843 -1.6075 -2.5558 -1.2101
18794SOL    HW257824   2.569   7.477   6.698  2.5745 -0.2247 -2.1211
18795SOL     OW57825   4.596   1.835   5.077 -0.0658  0.2031  0.1520
18795SOL    HW157826   4.585   1.750   5.035  0.6618 -0.0514  0.4589
18795SOL    HW257827   4.684   1.832   5.115  0.2272  1.3199 -0.3771
18796SOL     OW57828   7.470   6.135   6.044  0.1494  0.0949 -0.9662
18796SOL    HW157829   7.490   6.041   6.049  0.8401  0.1748 -2.0036
18796SOL    HW257830   7.424   6.154   6.126  0.0259 -1.1430 -0.7338
18797SOL     OW57831   7.436   2.866   3.530  0.3328 -0.0896 -0.6291
18797SOL    HW157832   7.521   2.859   3.574  1.3084 -0.7251 -2.5180
18797SOL    HW257833   7.413   2.776   3.508 -0.5225  0.1414 -0.6985
18798SOL     OW57834   2.487   3.717   1.007 -0.0473 -0.4642  0.0630
18798SOL    HW157835   2.404   3.755   0.977 -0.7900 -0.9920  1.3851
18798SOL    HW257836   2.548   3.791   1.009 -0.3994 -0.1152 -1.1671
18799SOL     OW57837   0.688   5.984  10.563  0.0566  0.1656 -0.0582
18799SOL    HW157838   0.757   6.046  10.539 -0.3244  0.6818  0.1684
18799SOL    HW257839   0.681   5.992  10.658  2.4385 -2.7684  0.5335
18800SOL     OW57840   2.540   3.819   8.823  0.4700 -0.4258 -0.1947
18800SOL    HW157841   2.454   3.817   8.783  0.3867 -1.2776 -0.0033
18800SOL    HW257842   2.534   3.757   8.896  1.0201  0.0684  0.2856
18801SOL     OW57843   5.479   7.318   2.224  0.1940 -0.5909 -0.4201
18801SOL    HW157844   5.386   7.297   2.229 -0.5683  2.4413  1.6510
18801SOL    HW257845   5.489   7.361   2.139 -0.5026 -0.2808 -0.3587
18802SOL     OW57846   0.097   5.092   7.064 -0.0424  0.8315 -0.0150
18802SOL    HW157847   0.104   5.006   7.105 -0.2123 -0.0827 -1.7726
18802SOL    HW257848   0.137   5.153   7.126 -2.6165 -0.0030  2.6519
18803SOL     OW57849   3.368   1.764   7.952  0.0277  0.7653 -0.4041
18803SOL    HW157850   3.312   1.719   8.016  1.3515  0.6139  0.6788
18803SOL    HW257851   3.422   1.824   8.003  1.6954  0.0646 -1.2455
18804SOL     OW57852   6.868   6.759   4.699  0.2715 -0.1927  0.0187
18804SOL    HW157853   6.945   6.817   4.700  2.1588 -2.5192 -0.0431
18804SOL    HW257854   6.802   6.806   4.749  1.3230  2.4033 -0.8606
18805SOL     OW57855   3.374   7.360   1.973 -0.9394  0.9058  0.4623
18805SOL    HW157856   3.426   7.281   1.985  0.3084  1.2946 -1.7934
18805SOL    HW257857   3.302   7.333   1.917 -1.9367  0.8700  1.7167
18806SOL     OW57858   7.155   5.314   6.084 -0.0580  0.7626  0.1711
18806SOL    HW157859   7.209   5.239   6.110  0.7915  0.7923 -1.3705
18806SOL    HW257860   7.110   5.340   6.164  0.3345 -0.8160  0.9472
18807SOL     OW57861   3.708   0.911   7.930 -0.1300  0.3751  0.3547
18807SOL    HW157862   3.642   0.859   7.976  0.7245  0.4077  1.6701
18807SOL    HW257863   3.691   1.001   7.959  1.1051  0.2650  1.5561
18808SOL     OW57864   7.828   0.147   3.025  0.7897  0.1255  0.3096
18808SOL    HW157865   7.886   0.154   2.948 -0.9232  1.0025 -0.9607
18808SOL    HW257866   7.740   0.147   2.988 -0.0636 -1.2536  2.1862
18809SOL     OW57867   3.499   7.284   9.067  0.2477 -0.5871  0.1223
18809SOL    HW157868   3.503   7.377   9.044  0.8930 -1.1089 -2.1251
18809SOL    HW257869   3.413   7.255   9.039  0.4723 -0.9166 -0.2338
18810SOL     OW57870   3.570   4.910  10.486 -0.5296  0.5771 -0.2044
18810SOL    HW157871   3.607   4.992  10.452  0.5161 -0.1550 -0.8899
18810SOL    HW257872   3.602   4.843  10.426  1.6522 -0.8448  2.3418
18811SOL     OW57873   2.204   1.000   5.423  0.2316  0.5108  0.2814
18811SOL    HW157874   2.110   1.020   5.421 -0.0582 -0.7059  0.6675
18811SOL    HW257875   2.209   0.907   5.399  1.3873  0.6969 -0.2507
18812SOL     OW57876   2.130   7.149  11.850  0.2010 -0.2482  0.4320
18812SOL    HW157877   2.176   7.226  11.817  1.5632  0.4392  3.5817
18812SOL    HW257878   2.200   7.087  11.871 -0.7521 -1.5676 -0.1579
18813SOL     OW57879   7.684   2.237   4.081  0.1556 -0.4687 -0.3347
18813SOL    HW157880   7.601   2.194   4.098 -0.6486  0.4032 -1.8713
18813SOL    HW257881   7.682   2.317   4.133  1.5376 -2.0041  2.3080
18814SOL     OW57882   6.812   5.111   2.324 -0.0852  0.1527  0.2888
18814SOL    HW157883   6.843   5.033   2.278 -0.4578 -0.6556  1.3982
18814SOL    HW257884   6.757   5.156   2.260 -0.0611 -0.6090 -0.2766
18815SOL     OW57885   5.528   5.915   9.511 -0.2575 -0.3692  0.1445
18815SOL    HW157886   5.610   5.907   9.461 -1.5811 -0.5948 -2.1134
18815SOL    HW257887   5.514   5.828   9.547 -0.4571 -0.8556 -1.0718
18816SOL     OW57888   2.196   6.590  11.065  0.0198 -0.4106 -0.0941
18816SOL    HW157889   2.209   6.684  11.083  2.7352 -0.5363 -0.9279
18816SOL    HW257890   2.231   6.578  10.977  1.6599 -2.5378  0.7646
18817SOL     OW57891   2.276   5.101   7.605 -0.1751  0.0237 -0.0257
18817SOL    HW157892   2.204   5.108   7.542 -0.9751 -1.0799  0.7217
18817SOL    HW257893   2.337   5.039   7.564  0.1218  0.5793 -0.4383
18818SOL     OW57894   2.555   7.654  11.838 -0.5438  0.6688  0.0976
18818SOL    HW157895   2.557   7.708  11.759 -1.9927 -1.8975 -1.8648
18818SOL    HW257896   2.549   7.564  11.806  4.0615 -1.1042  3.0541
18819SOL     OW57897   0.937   4.782   8.358 -0.0688  0.7883  0.1860
18819SOL    HW157898   0.869   4.822   8.412  1.5424  1.1222  2.0908
18819SOL    HW257899   0.925   4.688   8.371  1.2252  0.8667  2.4855
18820SOL     OW57900   0.386   3.022   9.206  0.3959  0.5000  0.4110
18820SOL    HW157901   0.442   2.959   9.252  2.3246  2.2382  0.5740
18820SOL    HW257902   0.363   3.086   9.273  0.5103  1.2860 -0.2902
18821SOL     OW57903   2.021   2.749   1.995 -0.0922 -0.2335  0.3642
18821SOL    HW157904   1.929   2.766   2.016  0.1579 -0.6736  1.9380
18821SOL    HW257905   2.065   2.748   2.080  0.9548 -2.4615 -0.1207
18822SOL     OW57906   1.839   4.904   9.375  0.2436  0.2725 -0.3465
18822SOL    HW157907   1.881   4.976   9.328 -0.2330  0.4944 -0.4435
18822SOL    HW257908   1.906   4.872   9.434  0.2534  1.2871  0.2292
18823SOL     OW57909   6.868   5.664   1.669 -0.2625  0.4056  0.0469
18823SOL    HW157910   6.830   5.738   1.622 -1.3923 -0.5082 -0.5108
18823SOL    HW257911   6.842   5.678   1.760 -0.2247  0.8367 -0.0032
18824SOL     OW57912   2.770   0.621   3.073 -0.1722 -0.2964 -0.3928
18824SOL    HW157913   2.691   0.623   3.019 -1.1544 -2.9722  0.7680
18824SOL    HW257914   2.740   0.593   3.159  1.9176 -0.4244  0.3564
18825SOL     OW57915   3.353   0.995   6.063  0.1686  0.3235 -0.2595
18825SOL    HW157916   3.440   0.999   6.023  0.2738 -0.8282 -0.1907
18825SOL    HW257917   3.349   1.070   6.122  0.7656  0.9041 -0.9420
18826SOL     OW57918   0.427   2.951   1.689  0.3514 -0.4530 -0.1136
18826SOL    HW157919   0.489   2.909   1.629  0.3910 -1.7530  0.8023
18826SOL    HW257920   0.404   2.883   1.751 -2.5356 -0.2154 -0.7772
18827SOL     OW57921   4.115   4.358   6.071  0.1179 -0.0733  0.5441
18827SOL    HW157922   4.103   4.382   6.163  0.1876 -0.8037  0.7525
18827SOL    HW257923   4.101   4.263   6.070 -0.8602  0.0607 -0.3682
18828SOL     OW57924   2.137   4.011   4.691  0.3869  0.3635 -0.1727
18828SOL    HW157925   2.196   4.070   4.738 -0.0540  0.4057  0.3310
18828SOL    HW257926   2.050   4.049   4.703  0.0055 -0.7147  0.7142
18829SOL     OW57927   7.578   7.117   6.507  0.2909  0.1460  0.1902
18829SOL    HW157928   7.585   7.105   6.413  0.4518  1.2507  0.0424
18829SOL    HW257929   7.623   7.042   6.545 -0.6980 -0.8742 -0.5881
18830SOL     OW57930   4.063   2.440  11.726 -0.1875  0.1025 -0.5887
18830SOL    HW157931   3.995   2.415  11.787  0.3074  1.2647  0.4834
18830SOL    HW257932   4.043   2.392  11.646 -0.7789 -1.5481  0.5087
18831SOL     OW57933   1.333   6.030   5.604 -0.0157 -0.0482 -0.4186
18831SOL    HW157934   1.402   5.966   5.588 -0.3989 -0.4203 -0.5860
18831SOL    HW257935   1.358   6.073   5.686  0.2724 -0.3693 -0.3415
18832SOL     OW57936   2.370   2.615   1.820 -0.1541  0.1741  0.3862
18832SOL    HW157937   2.346   2.662   1.740  2.7635  1.9868  0.3949
18832SOL    HW257938   2.432   2.548   1.791  4.2607  3.4463  1.2014
18833SOL     OW57939   5.524   5.488   0.880 -0.0850  0.2081  0.8989
18833SOL    HW157940   5.479   5.555   0.931 -1.1089 -0.7519  1.3120
18833SOL    HW257941   5.614   5.488   0.913  0.4812  2.6385 -0.4189
18834SOL     OW57942   7.136   1.521   6.167  0.0520  0.4476  0.0595
18834SOL    HW157943   7.116   1.604   6.211  0.6212  1.3017 -1.2422
18834SOL    HW257944   7.222   1.495   6.201  0.6689  1.3049 -0.8101
18835SOL     OW57945   4.338   3.277   3.477 -0.0307  0.3686 -0.7232
18835SOL    HW157946   4.318   3.371   3.473  0.1979  0.4767  0.3001
18835SOL    HW257947   4.359   3.262   3.569 -1.9661 -1.1020 -0.4735
18836SOL     OW57948   7.018   3.468  11.423 -0.6789 -0.0162 -0.8838
18836SOL    HW157949   7.025   3.377  11.393 -0.6269 -0.0610 -0.7368
18836SOL    HW257950   7.032   3.520  11.344  0.3714 -0.1159 -0.7799
18837SOL     OW57951   2.739   0.769   2.292 -0.0144  0.1611  1.0345
18837SOL    HW157952   2.792   0.824   2.349  0.0422  1.6531 -0.3837
18837SOL    HW257953   2.695   0.830   2.232  0.5327 -1.3380 -1.0275
18838SOL     OW57954   4.945   5.098  10.605  0.4080 -0.0120  0.6263
18838SOL    HW157955   4.917   5.158  10.674 -0.2068 -0.5648  0.8752
18838SOL    HW257956   5.038   5.083  10.621 -0.0290 -1.2550  2.2318
18839SOL     OW57957   3.937   7.169   9.680  0.5343 -0.0886  0.0334
18839SOL    HW157958   3.928   7.084   9.637  1.1335  0.2083 -0.7081
18839SOL    HW257959   4.023   7.166   9.721  0.6897  0.2760 -0.2638
18840SOL     OW57960   2.237   0.324   6.596  0.6184  0.4859 -0.2016
18840SOL    HW157961   2.192   0.406   6.574 -1.2880 -1.1706 -3.1591
18840SOL    HW257962   2.186   0.256   6.552  3.3602 -2.0859  0.2689
18841SOL     OW57963   1.911   2.275   0.761 -0.1873 -0.7645 -0.7019
18841SOL    HW157964   1.899   2.368   0.775  1.3424 -0.8543  1.7778
18841SOL    HW257965   1.971   2.269   0.687 -0.5277  0.1918 -1.0629
18842SOL     OW57966   5.733   3.955   1.590 -0.3924  1.0360  0.7819
18842SOL    HW157967   5.808   3.901   1.616  0.6202  1.7409 -0.5443
18842SOL    HW257968   5.675   3.953   1.665 -0.2206 -1.5772  0.9256
18843SOL     OW57969   7.898   2.439   9.287  0.9156 -0.0930  0.1591
18843SOL    HW157970   7.805   2.440   9.307  0.6640 -0.7014 -0.8948
18843SOL    HW257971   7.929   2.526   9.312 -0.4473  1.0268 -1.7506
18844SOL     OW57972   1.016   4.165   5.302  0.0770  0.6881  0.1175
18844SOL    HW157973   0.942   4.200   5.254  1.0525  2.8252  0.0699
18844SOL    HW257974   0.993   4.176   5.394  0.2271  1.1038  0.1046
18845SOL     OW57975   6.684   4.495  10.819  0.0080  0.6236  0.1525
18845SOL    HW157976   6.689   4.414  10.767 -1.8669  1.6425 -1.7708
18845SOL    HW257977   6.662   4.563  10.755 -1.4779  2.1240  2.1398
18846SOL     OW57978   6.358   3.103   3.950 -0.1624 -0.2681 -0.0633
18846SOL    HW157979   6.357   3.156   4.031 -0.6930 -0.1909 -0.1149
18846SOL    HW257980   6.277   3.052   3.954 -0.1146 -0.3800 -0.4734
18847SOL     OW57981   1.252   6.821   5.742  0.6539 -0.1492 -0.2402
18847SOL    HW157982   1.331   6.775   5.772  1.9062  1.5011 -0.8421
18847SOL    HW257983   1.180   6.780   5.790  1.7979 -2.0753 -0.0725
18848SOL     OW57984   7.764   0.158   3.632  0.1180  0.1722  0.6682
18848SOL    HW157985   7.860   0.150   3.625 -0.0032 -1.0618  0.2294
18848SOL    HW257986   7.731   0.123   3.549 -0.6867  1.5578  0.3807
18849SOL     OW57987   1.492   6.174  10.029 -0.2051 -0.1631  0.6653
18849SOL    HW157988   1.404   6.207  10.015  0.2002  0.3747 -0.7225
18849SOL    HW257989   1.530   6.166   9.941  1.2587 -0.0087  1.2486
18850SOL     OW57990   3.606   1.298   0.515 -0.2690  0.3749  0.1653
18850SOL    HW157991   3.633   1.229   0.455 -1.8431  0.5029 -0.7481
18850SOL    HW257992   3.515   1.276   0.537 -0.7747  2.0740 -0.0687
18851SOL     OW57993   5.467   5.938   2.751 -0.2103 -0.2389 -0.2014
18851SOL    HW157994   5.431   5.906   2.668  0.9751  0.0154 -0.8425
18851SOL    HW257995   5.444   6.031   2.753 -0.5189 -0.3189 -0.0943
18852SOL     OW57996   0.025   7.160   2.599  0.1507 -0.2805  0.1291
18852SOL    HW157997  -0.042   7.218   2.635 -0.9416  0.3291 -2.6000
18852SOL    HW257998  -0.021   7.108   2.533  1.8872 -1.6072 -0.1211
18853SOL     OW57999   3.400   0.773  10.490  0.4800  0.1594 -0.2089
18853SOL    HW158000   3.443   0.701  10.536 -0.6692  0.5216  1.5226
18853SOL    HW258001   3.378   0.736  10.404  2.8436 -0.4780 -0.6240
18854SOL     OW58002   2.009   7.283  10.933  0.2989  0.5513 -0.5615
18854SOL    HW158003   2.005   7.363  10.986  1.0071  0.4407 -0.3318
18854SOL    HW258004   2.074   7.303  10.865  1.6257 -0.3342  0.3848
18855SOL     OW58005   4.229   6.230   4.102  0.0791 -0.5562 -0.5047
18855SOL    HW158006   4.149   6.179   4.118  0.5975 -0.4207  3.8959
18855SOL    HW258007   4.199   6.321   4.100 -0.0359 -0.5936 -0.4593
18856SOL     OW58008   5.292   4.125  10.587 -0.0873 -0.2992 -0.2104
18856SOL    HW158009   5.356   4.073  10.636  0.5433 -1.4682 -2.1727
18856SOL    HW258010   5.254   4.184  10.652  1.7813 -0.7331  1.3472
18857SOL     OW58011   5.376   4.659   9.962 -0.2236 -0.0533 -0.1735
18857SOL    HW158012   5.358   4.709   9.883 -0.6063  1.2775  0.7320
18857SOL    HW258013   5.433   4.715  10.015  1.4732 -1.6335 -0.2369
18858SOL     OW58014   5.619   6.354   4.855 -0.4938  0.0384  0.3038
18858SOL    HW158015   5.537   6.402   4.865 -0.4994  0.7845 -2.6023
18858SOL    HW258016   5.676   6.413   4.806  1.5651 -0.7720  1.5781
18859SOL     OW58017   5.113   0.250   1.217 -0.6412  0.2397  0.1387
18859SOL    HW158018   5.121   0.225   1.309 -1.1431  2.2459  0.7739
18859SOL    HW258019   5.027   0.218   1.190  0.1680 -1.8398 -0.1875
18860SOL     OW58020   6.054   6.393   2.819  0.0238 -0.2839  0.2305
18860SOL    HW158021   6.098   6.390   2.904  1.6351  1.4185 -0.4719
18860SOL    HW258022   6.018   6.482   2.814  1.2588  0.1641 -1.4452
18861SOL     OW58023   0.521   1.852   8.707 -0.5889  0.4228  0.3258
18861SOL    HW158024   0.599   1.868   8.654 -0.6787  1.7454  0.5398
18861SOL    HW258025   0.554   1.811   8.787 -0.2705 -0.1592 -0.0987
18862SOL     OW58026   4.303   0.648   9.582 -0.6660 -0.3016  0.0383
18862SOL    HW158027   4.254   0.686   9.508 -0.5336 -0.3694 -0.0858
18862SOL    HW258028   4.376   0.602   9.540 -0.1807  0.2637  0.2504
18863SOL     OW58029   1.981   6.033  11.515  0.1395  0.2322  0.2654
18863SOL    HW158030   2.065   6.019  11.557 -0.1865  0.1054  0.8831
18863SOL    HW258031   1.917   6.031  11.586 -0.4060  0.1505 -0.2135
18864SOL     OW58032   3.777   6.911   7.000  0.2448 -0.1921  0.0444
18864SOL    HW158033   3.785   7.005   7.017 -0.0371 -0.4788  1.8592
18864SOL    HW258034   3.860   6.874   7.029 -0.3489 -0.7302  1.1000
18865SOL     OW58035   4.689   0.073   9.837 -0.2431  0.1196 -0.2944
18865SOL    HW158036   4.651   0.124   9.909 -2.0451 -1.8732  0.2898
18865SOL    HW258037   4.741   0.136   9.787 -1.6497  2.3035  0.8429
18866SOL     OW58038   4.414   2.161   4.405  0.1241  0.0513  0.4079
18866SOL    HW158039   4.420   2.205   4.321  1.6262 -0.9517 -0.0522
18866SOL    HW258040   4.403   2.233   4.469  0.6619  0.9572 -0.4827
18867SOL     OW58041   2.790   6.913   6.635  0.0070 -0.4175 -0.3357
18867SOL    HW158042   2.788   7.006   6.656 -0.3205 -0.7783  1.3290
18867SOL    HW258043   2.814   6.869   6.717 -0.4164 -1.8445 -0.9300
18868SOL     OW58044   2.484   1.868   6.718  0.7470  0.1336 -0.3295
18868SOL    HW158045   2.528   1.794   6.676  0.5288  0.2159 -0.7087
18868SOL    HW258046   2.468   1.839   6.808 -0.0347 -0.5833 -0.6847
18869SOL     OW58047   0.016   0.564   8.414 -0.4439  0.0698  0.1224
18869SOL    HW158048   0.000   0.610   8.332  1.2155 -0.4780 -0.5431
18869SOL    HW258049  -0.057   0.502   8.422 -0.2455 -0.3817 -1.3253
18870SOL     OW58050   6.817   0.278   7.018  0.5897  0.5861 -0.0129
18870SOL    HW158051   6.766   0.201   7.045  1.9539 -0.6248 -0.7668
18870SOL    HW258052   6.759   0.352   7.036 -1.5138 -0.7226 -0.9780
18871SOL     OW58053   0.129   3.863   1.817  0.1597  0.0021 -0.4052
18871SOL    HW158054   0.204   3.808   1.840 -0.3493 -0.1994  0.8528
18871SOL    HW258055   0.079   3.811   1.754 -0.0305 -0.7767  0.3652
18872SOL     OW58056   4.501   4.904  11.699 -0.1735 -0.8131 -0.7019
18872SOL    HW158057   4.558   4.959  11.752 -1.0019 -1.1260  0.5697
18872SOL    HW258058   4.443   4.966  11.654  0.4087 -0.5506 -1.0929
18873SOL     OW58059   4.391   0.720  11.097 -0.0965 -0.2124  0.2181
18873SOL    HW158060   4.462   0.784  11.099 -1.2368  1.1329  2.9760
18873SOL    HW258061   4.322   0.759  11.150 -1.6512 -2.8966  0.3539
18874SOL     OW58062   5.987   3.917   5.108  0.3986  0.0699  0.1258
18874SOL    HW158063   5.958   3.849   5.046 -0.5540 -0.8674  1.5157
18874SOL    HW258064   5.939   3.897   5.188  0.4955  2.1085  0.7503
18875SOL     OW58065   1.490   5.683   4.827 -0.5008 -0.2615 -0.4271
18875SOL    HW158066   1.441   5.660   4.906 -2.2106 -1.8548 -1.8444
18875SOL    HW258067   1.424   5.680   4.757  1.1332  0.1606 -2.0412
18876SOL     OW58068   0.817   3.216  10.587 -0.2988  0.2264  0.0078
18876SOL    HW158069   0.769   3.151  10.639  1.4411  0.5985  2.2378
18876SOL    HW258070   0.846   3.168  10.509 -0.9128 -1.0731  0.5597
18877SOL     OW58071   0.303   1.626  12.250 -0.1367  0.1980  0.0978
18877SOL    HW158072   0.248   1.548  12.240  0.2771  0.1710 -3.2007
18877SOL    HW258073   0.392   1.594  12.237  0.4896  0.6907  2.6650
18878SOL     OW58074   2.394   5.014   1.668 -0.0096 -0.2326  0.0475
18878SOL    HW158075   2.403   5.014   1.763  0.5365  0.8656  0.0076
18878SOL    HW258076   2.415   5.103   1.641  0.9925 -0.8116 -1.2112
18879SOL     OW58077   6.805   4.037  10.258  0.4623  1.1177  0.1862
18879SOL    HW158078   6.723   4.012  10.214  0.8079  0.8292 -0.2964
18879SOL    HW258079   6.872   4.026  10.191  0.8825  1.4826  0.5455
18880SOL     OW58080   7.700   7.715   0.912 -0.0188 -0.3419  0.1219
18880SOL    HW158081   7.701   7.773   0.836 -2.8426 -1.8768 -1.2632
18880SOL    HW258082   7.610   7.719   0.944  0.5764 -1.3771  2.0683
18881SOL     OW58083   5.055   2.256  10.390 -0.1991  0.2206 -0.1007
18881SOL    HW158084   5.006   2.274  10.310 -1.4272 -0.9406  0.3375
18881SOL    HW258085   5.057   2.160  10.396 -3.1571  0.1282  2.9091
18882SOL     OW58086   0.978   3.766  10.385 -0.2860  0.0715  0.0946
18882SOL    HW158087   0.934   3.802  10.308  2.5703 -1.3392 -2.4052
18882SOL    HW258088   1.064   3.808  10.385  0.2342 -0.8935  1.8053
18883SOL     OW58089   3.451   2.167   7.480  0.3921 -0.4716  0.3927
18883SOL    HW158090   3.492   2.234   7.425  0.1449 -0.0053  0.7773
18883SOL    HW258091   3.408   2.215   7.550  0.6888 -1.0660  0.9991
18884SOL     OW58092   3.979   1.536   7.449  0.2413  0.2724 -0.2363
18884SOL    HW158093   4.057   1.588   7.430 -0.0844  0.3025 -1.6022
18884SOL    HW258094   3.921   1.596   7.497  0.9144  0.3432  0.5068
18885SOL     OW58095   4.584   7.426  10.149  0.5732 -0.0740 -0.1733
18885SOL    HW158096   4.554   7.404  10.060 -0.5010 -1.1093  0.4132
18885SOL    HW258097   4.528   7.374  10.206 -1.5944  3.5778  1.3626
18886SOL     OW58098   2.935   1.133  12.032  0.0783 -0.5417  0.1771
18886SOL    HW158099   2.996   1.084  12.087  0.2313  0.1664  0.6370
18886SOL    HW258100   2.950   1.098  11.944  0.8584 -0.6554  0.3455
18887SOL     OW58101   3.271   7.315   8.777  0.4164 -0.3476 -0.3062
18887SOL    HW158102   3.228   7.318   8.692  0.9110  0.8133 -0.5411
18887SOL    HW258103   3.347   7.372   8.767  0.4800 -0.1944  0.9155
18888SOL     OW58104   6.323   7.148   8.886 -0.3312 -0.1251 -0.3618
18888SOL    HW158105   6.366   7.226   8.851 -0.3128 -0.5579 -1.3184
18888SOL    HW258106   6.231   7.173   8.892 -0.1951  0.2785  0.2396
18889SOL     OW58107   5.586   5.571   3.182 -0.0307  0.5959  0.0249
18889SOL    HW158108   5.624   5.503   3.238  0.7094  0.2460 -0.8954
18889SOL    HW258109   5.598   5.539   3.093 -2.3043  0.5619 -0.3252
18890SOL     OW58110   0.040   3.262   5.779 -0.1366 -0.7233  0.7501
18890SOL    HW158111  -0.005   3.237   5.698 -1.8544 -1.7089  1.9602
18890SOL    HW258112   0.112   3.199   5.786 -0.8001 -1.5121  0.6633
18891SOL     OW58113   3.395   5.713   3.318  0.3087  0.2938 -0.0550
18891SOL    HW158114   3.450   5.635   3.311 -0.6809 -0.4654  0.3784
18891SOL    HW258115   3.312   5.686   3.278 -0.8179  0.3627  2.1004
18892SOL     OW58116   2.159   1.732  10.809  0.0982  0.7251 -0.2383
18892SOL    HW158117   2.067   1.736  10.835 -0.2124 -1.7457 -0.6961
18892SOL    HW258118   2.178   1.819  10.776 -1.6516  1.7235  1.1853
18893SOL     OW58119   2.654   2.666   4.090 -0.3353 -0.4015 -0.8165
18893SOL    HW158120   2.727   2.685   4.031 -0.4337 -0.0605 -0.8284
18893SOL    HW258121   2.637   2.748   4.135 -0.1656 -0.7012 -0.2025
18894SOL     OW58122   2.103   7.866   5.256 -0.3180  0.5473 -0.1715
18894SOL    HW158123   2.071   7.936   5.199 -0.4503  1.1996  0.6730
18894SOL    HW258124   2.083   7.785   5.210  0.2824  1.0856 -1.3987
18895SOL     OW58125   4.600   1.186   7.870 -0.2808 -0.2050  0.7533
18895SOL    HW158126   4.551   1.104   7.872  0.5339 -0.7665 -0.5261
18895SOL    HW258127   4.534   1.253   7.851 -0.6013 -0.9563 -1.0295
18896SOL     OW58128   6.160   2.245   5.077 -0.1132 -0.5689  0.2548
18896SOL    HW158129   6.179   2.331   5.039  1.9416 -0.6925  0.8844
18896SOL    HW258130   6.065   2.246   5.091 -0.3275  1.0595 -0.9942
18897SOL     OW58131   2.845   6.854  11.313  0.0629  0.0399  0.3119
18897SOL    HW158132   2.849   6.763  11.283  1.3938 -0.3033  1.4397
18897SOL    HW258133   2.867   6.906  11.235  1.8018 -0.7484  0.2211
18898SOL     OW58134   1.130   0.496   7.223  0.1920  0.0558 -0.4991
18898SOL    HW158135   1.074   0.505   7.145 -1.3591 -0.2101  0.5289
18898SOL    HW258136   1.204   0.555   7.207 -0.1771  0.1346 -2.0874
18899SOL     OW58137   4.337   7.378   7.797  0.4359  0.3853  0.3561
18899SOL    HW158138   4.405   7.406   7.857  0.4528  0.1679  0.4402
18899SOL    HW258139   4.294   7.305   7.841  1.0270 -0.3636 -0.2680
18900SOL     OW58140   3.734   2.630  10.701 -0.1050  0.3531 -0.3885
18900SOL    HW158141   3.754   2.557  10.760  1.1430  1.5119  0.6708
18900SOL    HW258142   3.659   2.673  10.742 -1.6296 -0.9703 -1.6466
18901SOL     OW58143   3.010   6.473   4.827  0.2610  0.2769 -0.2109
18901SOL    HW158144   2.940   6.413   4.852 -0.7217  1.1255 -0.7876
18901SOL    HW258145   3.079   6.417   4.792 -0.5924 -0.5272 -0.6679
18902SOL     OW58146   1.461   6.019   3.647  0.0703 -0.5073 -0.2303
18902SOL    HW158147   1.373   6.057   3.650  0.7207  1.0423  0.3506
18902SOL    HW258148   1.491   6.019   3.738  0.9689 -0.2357 -0.5115
18903SOL     OW58149   5.035   5.524  10.621 -0.0922 -0.8064  0.0567
18903SOL    HW158150   5.101   5.503  10.555  0.5471  2.0521 -0.3462
18903SOL    HW258151   4.953   5.488  10.586  0.3130  0.2553 -2.1345
18904SOL     OW58152   0.112   4.145   7.269 -0.2003 -0.6421 -0.6052
18904SOL    HW158153   0.059   4.222   7.249 -1.4358 -1.3636 -0.2181
18904SOL    HW258154   0.201   4.179   7.280 -0.4411  0.5018 -1.9603
18905SOL     OW58155   0.795   7.568   6.346  0.5912 -0.0053  0.6088
18905SOL    HW158156   0.770   7.625   6.418 -0.5957 -0.0704  0.2705
18905SOL    HW258157   0.875   7.607   6.311 -0.4105  1.7120  0.1152
18906SOL     OW58158   2.810   3.895   2.852 -0.2615 -0.0106 -0.0849
18906SOL    HW158159   2.749   3.957   2.892 -1.8349 -1.1813 -0.6154
18906SOL    HW258160   2.788   3.896   2.759 -0.3700 -1.4152 -0.0896
18907SOL     OW58161   4.315   2.980   0.708 -0.2263  0.0200 -0.2275
18907SOL    HW158162   4.352   2.925   0.777  1.5509  1.7650  0.3171
18907SOL    HW258163   4.264   2.920   0.654  0.5218 -1.8859  1.0823
18908SOL     OW58164   5.783   0.188   1.436 -0.7358  0.0447  0.1058
18908SOL    HW158165   5.853   0.216   1.377  0.8972 -1.6381  1.1618
18908SOL    HW258166   5.702   0.206   1.387  0.4697  0.3441 -1.8884
18909SOL     OW58167   6.516   6.562   5.477  0.2826  0.7544 -0.0438
18909SOL    HW158168   6.492   6.626   5.544 -0.2313  0.4336  0.0835
18909SOL    HW258169   6.454   6.577   5.406 -0.1370  0.0962  0.1765
18910SOL     OW58170   0.646   6.201   0.946 -0.3179  0.2142  0.1621
18910SOL    HW158171   0.669   6.181   1.036  2.5066  2.6452  0.1451
18910SOL    HW258172   0.690   6.133   0.894  0.9308  0.7420  0.5003
18911SOL     OW58173   2.484   2.415   0.059 -0.5181  0.5174 -0.3855
18911SOL    HW158174   2.577   2.421   0.081 -0.6130 -0.7537  0.5006
18911SOL    HW258175   2.444   2.487   0.108 -0.1367  0.3744  0.1543
18912SOL     OW58176   6.769   0.036   7.357 -0.5590  0.3778 -0.3386
18912SOL    HW158177   6.744  -0.055   7.373  3.1314 -1.0336 -1.3914
18912SOL    HW258178   6.766   0.046   7.262 -1.4737  1.5826 -0.2030
18913SOL     OW58179   0.553   4.260   4.895  0.2528  0.0933  0.0831
18913SOL    HW158180   0.471   4.306   4.912  0.3368  0.8066 -1.2515
18913SOL    HW258181   0.580   4.224   4.980  0.8378  3.5544  1.5078
18914SOL     OW58182   0.378   2.151   6.366  0.3758 -0.4498 -0.0688
18914SOL    HW158183   0.309   2.163   6.301 -0.6096 -2.0477  0.6029
18914SOL    HW258184   0.447   2.104   6.318 -0.2557 -1.4360 -0.0484
18915SOL     OW58185   3.441   3.749   2.612  0.2912  0.1890 -0.1614
18915SOL    HW158186   3.479   3.831   2.581  0.1422  0.7494  1.0927
18915SOL    HW258187   3.359   3.774   2.654 -0.9108 -0.8759 -1.7292
18916SOL     OW58188   5.327   5.618   1.449  0.3277 -0.2894  0.3850
18916SOL    HW158189   5.372   5.540   1.418  1.9877  0.0093  1.9122
18916SOL    HW258190   5.333   5.614   1.544 -0.1701  1.3474  0.5287
18917SOL     OW58191   2.872   3.614  10.150 -0.0414  0.1452  0.4792
18917SOL    HW158192   2.792   3.665  10.159  0.7727  1.7332 -0.7378
18917SOL    HW258193   2.910   3.613  10.238 -1.7780 -1.3904  1.2743
18918SOL     OW58194   7.643   0.197   0.883 -0.5483 -0.1007  0.2676
18918SOL    HW158195   7.675   0.257   0.816  2.7112 -0.7656  1.0485
18918SOL    HW258196   7.675   0.111   0.857 -2.0836 -0.9463  1.0125
18919SOL     OW58197   1.896   7.434   0.966 -0.0786  0.6206 -0.0300
18919SOL    HW158198   1.802   7.438   0.984 -0.2289  1.3447 -0.9036
18919SOL    HW258199   1.925   7.525   0.970  0.5499  0.4202  0.0439
18920SOL     OW58200   3.611   1.883   1.430  0.4731 -0.2327  0.6766
18920SOL    HW158201   3.631   1.796   1.465 -0.9092 -1.1123 -0.6136
18920SOL    HW258202   3.660   1.889   1.349  0.6443  0.2422  0.8126
18921SOL     OW58203   0.731   6.225  10.759 -0.0981  0.7472  0.3788
18921SOL    HW158204   0.807   6.178  10.725 -2.1529 -2.3863 -0.2306
18921SOL    HW258205   0.731   6.206  10.853  0.7338  2.1805  0.7057
18922SOL     OW58206   5.602   1.943   1.155  0.3085  0.3357 -0.1649
18922SOL    HW158207   5.594   1.968   1.247  0.3660 -1.4077  0.3597
18922SOL    HW258208   5.692   1.911   1.146  0.7572  1.7809 -1.1986
18923SOL     OW58209   7.150   2.890   0.704 -0.5043 -0.2354 -0.2792
18923SOL    HW158210   7.141   2.944   0.783  0.0700  1.4456 -1.3114
18923SOL    HW258211   7.244   2.889   0.686 -0.6715 -0.2179 -1.1952
18924SOL     OW58212   5.727   3.117  11.069  0.5064 -0.0718 -0.4563
18924SOL    HW158213   5.693   3.038  11.028  0.7564 -0.6661  0.4648
18924SOL    HW258214   5.710   3.186  11.005  2.9065 -1.3015 -2.5774
18925SOL     OW58215   7.636   5.081   0.686  0.3474  0.1038  0.2594
18925SOL    HW158216   7.691   5.087   0.608 -1.0117  1.5807 -0.6301
18925SOL    HW258217   7.642   5.167   0.727 -0.1580 -0.1798  0.9443
18926SOL     OW58218   7.837   1.974   2.119  0.4505  0.0497 -0.2014
18926SOL    HW158219   7.833   1.987   2.024 -0.5288  3.1761  0.1791
18926SOL    HW258220   7.928   1.993   2.142  0.2719  1.0931 -0.3224
18927SOL     OW58221   6.075   0.992  11.376 -0.0731  0.4601  0.3822
18927SOL    HW158222   6.104   0.902  11.392  1.8209  1.0302  0.3089
18927SOL    HW258223   6.083   1.035  11.461  1.1463  1.1156 -0.0529
18928SOL     OW58224   4.366   1.326   5.747 -0.4408 -0.1539  0.3587
18928SOL    HW158225   4.446   1.290   5.785 -0.4458 -1.8206 -1.0579
18928SOL    HW258226   4.371   1.420   5.764  2.1649 -0.1025 -0.2467
18929SOL     OW58227   4.137   5.464   5.399 -0.1695 -0.0009  0.5345
18929SOL    HW158228   4.143   5.526   5.472  0.0789 -0.1223  0.6178
18929SOL    HW258229   4.076   5.398   5.430 -0.7705  0.4309  0.2766
18930SOL     OW58230   7.769   2.892   3.527 -0.1478  0.2920 -0.3390
18930SOL    HW158231   7.739   2.975   3.488 -3.7032 -1.3300 -1.5013
18930SOL    HW258232   7.735   2.895   3.617 -1.1963 -0.2395 -0.6930
18931SOL     OW58233   7.126   5.123   1.647  0.1000  0.0455  0.2571
18931SOL    HW158234   7.192   5.190   1.627 -0.1030  0.5037  1.0650
18931SOL    HW258235   7.051   5.146   1.592 -0.7167  1.7122  1.9541
18932SOL     OW58236   5.431   2.034   0.461  0.3302  0.5940 -0.3900
18932SOL    HW158237   5.336   2.048   0.456 -0.4822 -3.5191 -0.4644
18932SOL    HW258238   5.459   2.024   0.370  0.4309 -0.0547 -0.2940
18933SOL     OW58239   2.524   4.067   2.264 -0.6316  0.3212  0.0438
18933SOL    HW158240   2.506   4.052   2.171  1.8110  0.9289 -0.6060
18933SOL    HW258241   2.513   3.982   2.305 -2.6463  0.2208 -0.5722
18934SOL     OW58242   2.280   3.817   3.598  0.5744 -0.1719 -0.1837
18934SOL    HW158243   2.325   3.759   3.537  1.0816 -0.4101  0.4066
18934SOL    HW258244   2.201   3.844   3.552  0.6891 -0.7649 -0.7381
18935SOL     OW58245   6.184   0.518   4.415 -0.1281 -1.6107  0.2869
18935SOL    HW158246   6.265   0.481   4.449 -0.3480 -0.8939  1.6626
18935SOL    HW258247   6.135   0.544   4.492  0.5705  2.7603 -0.4635
18936SOL     OW58248   2.049   2.480   1.930  0.1451 -0.1397 -0.4384
18936SOL    HW158249   2.086   2.476   1.842 -0.4381  1.7115 -0.8029
18936SOL    HW258250   2.022   2.571   1.941 -0.2933 -0.4551  1.4608
18937SOL     OW58251   2.950   0.780   0.662  0.7081 -0.3214 -0.3775
18937SOL    HW158252   2.921   0.754   0.575 -0.0212  0.2075 -0.3062
18937SOL    HW258253   2.956   0.699   0.711  1.6894 -0.6891 -1.0788
18938SOL     OW58254   2.265   0.382   4.735  0.0170 -0.2400  0.1887
18938SOL    HW158255   2.229   0.396   4.648 -3.2955  0.7006  1.5539
18938SOL    HW258256   2.281   0.470   4.769  2.0000 -0.6014  0.3644
18939SOL     OW58257   1.242   0.205   1.864 -0.2917  0.4676  0.1107
18939SOL    HW158258   1.198   0.128   1.899  0.2678  0.8920  1.8373
18939SOL    HW258259   1.210   0.278   1.917  0.7626  1.1086 -0.1022
18940SOL     OW58260   6.726   4.349   3.355 -0.1109 -0.1626 -0.2910
18940SOL    HW158261   6.790   4.289   3.316  1.2143  1.4911 -0.7886
18940SOL    HW258262   6.774   4.431   3.366 -1.4581  0.4442  1.6410
18941SOL     OW58263   6.069   4.812   7.270  0.6974  0.3674  0.0550
18941SOL    HW158264   6.023   4.809   7.186 -1.2801 -1.9152  1.0919
18941SOL    HW258265   6.154   4.771   7.251  0.5664  0.5267 -0.9749
18942SOL     OW58266   3.078   7.354  11.995 -0.3790 -0.3592 -0.2396
18942SOL    HW158267   3.119   7.440  12.000  0.3933 -0.7472  0.3013
18942SOL    HW258268   3.006   7.365  11.933  2.0534 -0.2510 -3.3223
18943SOL     OW58269   5.195   6.347  11.734  0.5062  0.3345  0.1312
18943SOL    HW158270   5.109   6.365  11.695  0.2562  2.2406  1.4047
18943SOL    HW258271   5.258   6.379  11.669  0.1732  0.8041  0.0268
18944SOL     OW58272   3.892   5.977   0.248  0.4590 -0.2091  0.5635
18944SOL    HW158273   3.947   5.901   0.229 -0.5779 -0.7359 -0.5082
18944SOL    HW258274   3.845   5.953   0.328 -0.3463 -1.0053 -0.1266
18945SOL     OW58275   5.048   0.061   6.984  0.4785 -0.0101  0.3692
18945SOL    HW158276   5.004   0.055   6.899 -0.7686 -1.9191  1.0901
18945SOL    HW258277   4.986   0.023   7.046  2.0883 -0.3322  1.8548
18946SOL     OW58278   7.735   0.061   2.217 -0.3927  0.0547  0.1484
18946SOL    HW158279   7.710   0.035   2.129  1.3576  0.7327 -0.5757
18946SOL    HW258280   7.827   0.037   2.225 -0.5726 -0.1920  1.8757
18947SOL     OW58281   1.328   4.836  11.423  0.1550  0.2857 -0.5244
18947SOL    HW158282   1.250   4.828  11.369  0.0766  0.3536 -0.4227
18947SOL    HW258283   1.335   4.752  11.467 -0.1418  0.4483 -0.1595
18948SOL     OW58284   0.639   3.821   2.084  0.0356 -0.2529 -0.0266
18948SOL    HW158285   0.621   3.873   2.006 -0.9848  1.7850  1.4767
18948SOL    HW258286   0.553   3.808   2.124  0.3079 -2.7843 -0.0725
18949SOL     OW58287   6.940   7.520  11.161 -0.7252 -0.2765 -0.0615
18949SOL    HW158288   6.951   7.466  11.083  1.3893 -2.0596  1.3515
18949SOL    HW258289   6.964   7.608  11.132 -1.0792 -0.6755 -1.6652
18950SOL     OW58290   1.931   3.836   9.778 -0.1382  0.9914  0.3550
18950SOL    HW158291   1.987   3.910   9.757  1.4043 -0.3440 -0.4840
18950SOL    HW258292   1.991   3.767   9.806 -1.5074  0.0184  1.0563
18951SOL     OW58293   0.632   6.242   6.945 -0.3212  0.1491  0.0537
18951SOL    HW158294   0.656   6.150   6.954  0.0907  0.2209 -0.2361
18951SOL    HW258295   0.641   6.278   7.033 -0.4965 -0.0919  0.1694
18952SOL     OW58296   5.370   5.487   4.414  0.7014 -0.1890  0.6481
18952SOL    HW158297   5.281   5.460   4.435  0.6650 -0.5974 -0.0076
18952SOL    HW258298   5.380   5.572   4.457 -0.1222  0.0325  0.4189
18953SOL     OW58299   0.829   7.447   4.647 -0.0602  0.5410  0.0144
18953SOL    HW158300   0.800   7.466   4.736  0.5802 -0.6683  0.5010
18953SOL    HW258301   0.750   7.458   4.594 -0.6654  0.4041  0.8634
18954SOL     OW58302   6.901   6.608   9.867  0.5059  0.3547  0.2926
18954SOL    HW158303   6.932   6.698   9.861 -0.5031  0.6483 -0.8553
18954SOL    HW258304   6.805   6.615   9.874  0.5213 -0.5467  2.9128
18955SOL     OW58305   0.255   1.465   8.896 -0.2718  0.5964  0.0415
18955SOL    HW158306   0.179   1.415   8.927 -1.1113  0.1926 -2.4205
18955SOL    HW258307   0.331   1.414   8.923 -1.0349 -0.8539 -0.4530
18956SOL     OW58308   0.542   2.611   5.984  0.3260  0.1060  0.2898
18956SOL    HW158309   0.509   2.697   5.959 -0.3716 -0.1497  0.2914
18956SOL    HW258310   0.599   2.585   5.912 -2.7620 -1.2573 -1.9141
18957SOL     OW58311   2.806   5.691   4.640  0.5016 -0.0339  0.5743
18957SOL    HW158312   2.763   5.617   4.683  0.2449  0.9080  1.9761
18957SOL    HW258313   2.751   5.709   4.564 -0.7443  0.1762  1.4926
18958SOL     OW58314   3.910   0.646   2.681 -0.1866  0.2747  0.2273
18958SOL    HW158315   3.908   0.742   2.682 -2.4584  0.2927 -0.7219
18958SOL    HW258316   3.864   0.622   2.601 -0.9171 -1.6187  1.1551
18959SOL     OW58317   1.016   1.884   7.634  0.2129 -0.3019  0.3874
18959SOL    HW158318   1.057   1.830   7.702  1.9744 -0.2089 -0.5438
18959SOL    HW258319   1.056   1.854   7.553 -1.0753  0.3198 -0.5058
18960SOL     OW58320   6.029   0.863   4.339  0.1691  0.3217 -0.5155
18960SOL    HW158321   6.018   0.957   4.325 -1.1841 -0.0213 -2.2197
18960SOL    HW258322   5.945   0.825   4.313  0.2609 -1.2845  1.2856
18961SOL     OW58323   7.616   7.790   7.310  0.3278 -0.8154 -0.2804
18961SOL    HW158324   7.574   7.844   7.243  0.7191  1.3504  1.1243
18961SOL    HW258325   7.709   7.810   7.301  0.2846  0.5152  1.6774
18962SOL     OW58326   0.959   7.875  11.280  0.6604  0.2374  0.0698
18962SOL    HW158327   0.883   7.908  11.328  1.9389 -0.6069  2.8599
18962SOL    HW258328   0.988   7.950  11.228  0.9399  2.2744  2.9479
18963SOL     OW58329   7.815   2.923   7.538  0.0359  0.9510  0.2484
18963SOL    HW158330   7.752   2.996   7.540 -1.2278 -0.0859 -0.3667
18963SOL    HW258331   7.839   2.915   7.446 -0.6908 -0.0971  0.1350
18964SOL     OW58332   6.119   4.582   7.022  0.0247 -0.0699 -0.7678
18964SOL    HW158333   6.028   4.562   7.000 -0.5421  1.1967  0.3561
18964SOL    HW258334   6.169   4.550   6.947 -1.4198  0.0220 -1.8000
18965SOL     OW58335   6.089   2.760  10.013  0.0848 -0.1157  0.4784
18965SOL    HW158336   6.046   2.683  10.048 -0.6349  0.0441 -0.0221
18965SOL    HW258337   6.129   2.731   9.931 -0.4169  0.0956  0.1523
18966SOL     OW58338   3.132   7.353   3.431  0.2338  0.2742 -0.4160
18966SOL    HW158339   3.087   7.290   3.374  0.9222  0.7162 -1.4926
18966SOL    HW258340   3.068   7.374   3.499 -0.4188 -0.6974 -0.7048
18967SOL     OW58341   7.676   5.265   9.647 -0.0639  0.2843 -0.4282
18967SOL    HW158342   7.707   5.184   9.688 -0.9203 -0.6031 -1.4655
18967SOL    HW258343   7.668   5.327   9.719 -0.5780 -0.9230  0.5917
18968SOL     OW58344   5.579   4.017   0.800 -0.4842 -0.5155 -0.0265
18968SOL    HW158345   5.493   4.026   0.757 -0.2270 -0.0214 -0.4547
18968SOL    HW258346   5.635   3.977   0.734  0.5231  2.3086 -1.0552
18969SOL     OW58347   0.860   3.722   0.887  0.2242  0.3216  0.1829
18969SOL    HW158348   0.937   3.722   0.943 -0.6005 -0.4296  1.3645
18969SOL    HW258349   0.832   3.814   0.886  1.7779  0.8301 -1.2384
18970SOL     OW58350   4.235   1.566   5.396  0.2598 -0.2373 -0.5066
18970SOL    HW158351   4.194   1.481   5.413  0.7979 -0.1963  1.1687
18970SOL    HW258352   4.327   1.547   5.381  0.4750  0.0735  0.3496
18971SOL     OW58353   7.010   3.682   6.542  0.6028  0.1240 -0.7264
18971SOL    HW158354   6.920   3.668   6.569  1.2827 -0.7999  1.2115
18971SOL    HW258355   7.036   3.600   6.500  0.6056  0.3350 -1.1459
18972SOL     OW58356   2.403   2.229  12.304 -0.7126 -0.1113  0.6219
18972SOL    HW158357   2.438   2.274  12.381 -0.3204 -1.7353  1.4417
18972SOL    HW258358   2.329   2.282  12.277 -1.3036  0.1472  2.5789
18973SOL     OW58359   7.736   4.007   2.195  0.2176 -0.6052 -0.2282
18973SOL    HW158360   7.725   4.096   2.160 -2.0279 -0.5379  0.4508
18973SOL    HW258361   7.797   3.964   2.136 -0.0780  0.8352 -1.6380
18974SOL     OW58362   0.847   6.142   5.924  0.4006  0.1122  0.2167
18974SOL    HW158363   0.769   6.151   5.869  0.4828 -0.2833  0.0304
18974SOL    HW258364   0.860   6.048   5.931  1.7075  0.1663 -0.9752
18975SOL     OW58365   3.052   0.836   7.902 -0.0138 -0.1724  0.7430
18975SOL    HW158366   3.068   0.744   7.883 -3.3827 -1.0054  1.4062
18975SOL    HW258367   2.981   0.861   7.844  0.3742  1.8517  1.0509
18976SOL     OW58368   4.629   7.168   4.946 -0.0552  0.1697  0.2728
18976SOL    HW158369   4.671   7.159   4.860 -0.1596  1.3698  0.0640
18976SOL    HW258370   4.653   7.256   4.974 -0.2711 -0.1061  1.3442
18977SOL     OW58371   7.440   4.408  12.424 -0.2594  0.4192 -0.0783
18977SOL    HW158372   7.512   4.418  12.362 -0.5292 -1.7023 -0.8033
18977SOL    HW258373   7.473   4.347  12.490 -1.5922 -1.2309 -0.8571
18978SOL     OW58374   3.026   6.232  12.077 -0.0007  0.4257 -0.2065
18978SOL    HW158375   2.995   6.188  11.997 -1.0212 -0.7320  0.7906
18978SOL    HW258376   2.951   6.230  12.136  0.5168  1.9146  0.5446
18979SOL     OW58377   0.142   5.115   9.524 -0.1576 -0.6313 -0.1016
18979SOL    HW158378   0.064   5.067   9.494 -0.5163  0.6850 -1.3880
18979SOL    HW258379   0.214   5.079   9.473 -0.3463 -0.1768 -0.7035
18980SOL     OW58380   7.474   5.857   6.417  0.4361  0.2731 -0.6002
18980SOL    HW158381   7.562   5.822   6.426  0.1653 -0.0776  0.9389
18980SOL    HW258382   7.434   5.804   6.348  0.8977 -0.6794 -0.1552
18981SOL     OW58383   4.934   0.762   0.824  0.1178 -0.0693 -0.2128
18981SOL    HW158384   4.891   0.701   0.765  0.5081 -0.5788  0.0260
18981SOL    HW258385   4.962   0.834   0.768 -1.8281  0.7173 -0.2456
18982SOL     OW58386   7.522   2.256   7.863 -0.0693 -0.1149  0.1234
18982SOL    HW158387   7.610   2.224   7.884  0.0201  0.9697  1.5961
18982SOL    HW258388   7.467   2.178   7.866  0.4718 -0.4748  1.5732
18983SOL     OW58389   5.915   4.309   1.347  0.3226  0.0923 -0.4863
18983SOL    HW158390   5.890   4.292   1.256  1.0830  4.0972 -1.6196
18983SOL    HW258391   6.010   4.320   1.344  0.6658 -1.7715  1.2840
18984SOL     OW58392   6.124   2.868   1.037  0.4846  0.4184  0.1054
18984SOL    HW158393   6.198   2.861   0.977 -0.5749  0.8133 -1.2972
18984SOL    HW258394   6.071   2.790   1.018  1.7699 -1.3298  2.9496
18985SOL     OW58395   3.596   0.549  10.857 -0.1900 -0.0167 -0.1252
18985SOL    HW158396   3.600   0.555  10.761  2.1316  1.8216  0.0098
18985SOL    HW258397   3.528   0.612  10.882 -0.8220 -0.5200 -0.5467
18986SOL     OW58398   1.518   5.983   6.044  0.3624  0.1694  0.7593
18986SOL    HW158399   1.562   5.935   5.974  1.9157  2.4305  0.0725
18986SOL    HW258400   1.461   5.918   6.086  1.6984 -2.0082 -0.6154
18987SOL     OW58401   6.635   0.458  11.397 -0.0613 -0.1332 -0.1161
18987SOL    HW158402   6.638   0.394  11.326  0.5378  0.3109 -0.5047
18987SOL    HW258403   6.726   0.486  11.407 -0.3745  0.9483 -0.2309
18988SOL     OW58404   5.570   5.054   0.922 -0.5789 -0.2973 -0.2374
18988SOL    HW158405   5.531   4.974   0.888  2.1851 -1.4470 -0.9858
18988SOL    HW258406   5.604   5.029   1.008 -1.9726  0.8594  0.6952
18989SOL     OW58407   4.347   5.991  11.690  0.4947 -0.0903  0.2767
18989SOL    HW158408   4.406   5.916  11.702  1.4881  0.7815  1.1116
18989SOL    HW258409   4.284   5.984  11.762  1.2439  0.4286  1.0161
18990SOL     OW58410   1.335   2.334   9.159 -0.5482 -0.1908  0.7722
18990SOL    HW158411   1.374   2.340   9.072 -1.4744  0.0936  0.3656
18990SOL    HW258412   1.409   2.325   9.218  0.2894  2.1972  0.2051
18991SOL     OW58413   5.255   7.863  11.990  0.0060  0.7341 -0.1408
18991SOL    HW158414   5.200   7.794  11.953 -0.1305  2.1408 -2.8328
18991SOL    HW258415   5.193   7.923  12.032  0.0712 -0.3950  1.6582
18992SOL     OW58416   4.131   1.871   3.281  0.1190 -0.1282 -1.1193
18992SOL    HW158417   4.036   1.877   3.272 -0.0012  0.8237  0.2737
18992SOL    HW258418   4.144   1.818   3.360  0.6124  2.1466  0.4166
18993SOL     OW58419   3.142   7.470   0.888 -0.2637 -0.3168  0.1343
18993SOL    HW158420   3.181   7.558   0.886  0.1744 -0.5134 -0.1106
18993SOL    HW258421   3.196   7.422   0.951  0.7094 -0.9682 -1.1534
18994SOL     OW58422   1.428   7.886  10.494  0.4687 -0.0161 -0.0292
18994SOL    HW158423   1.392   7.932  10.418  0.0154  1.4367  1.0077
18994SOL    HW258424   1.521   7.910  10.493  0.2599  0.8569  0.4341
18995SOL     OW58425   1.509   5.227   7.943 -0.4372  0.0058 -0.5599
18995SOL    HW158426   1.489   5.285   7.869  1.9801  0.7959 -0.6817
18995SOL    HW258427   1.435   5.166   7.946 -1.5946  1.2180 -2.3312
18996SOL     OW58428   1.715   4.817   3.848 -0.3008 -0.0292  0.3078
18996SOL    HW158429   1.773   4.827   3.923  1.2365 -0.6471 -0.7519
18996SOL    HW258430   1.631   4.790   3.887  0.1314  0.7373  1.8642
18997SOL     OW58431   4.584   5.641  11.257  0.2009 -0.3021  0.2744
18997SOL    HW158432   4.517   5.691  11.303 -1.2993 -0.5478 -1.5489
18997SOL    HW258433   4.550   5.630  11.168  1.9773 -1.7284 -0.2945
18998SOL     OW58434   4.171   2.693   9.373  0.5273 -0.0592  0.1971
18998SOL    HW158435   4.163   2.673   9.467 -3.1280 -1.9368 -0.3322
18998SOL    HW258436   4.203   2.612   9.334  0.0838  0.0407 -0.3892
18999SOL     OW58437   4.821   3.241   9.361 -0.0606  0.1748 -0.0442
18999SOL    HW158438   4.760   3.200   9.422 -0.7912  0.9674 -0.2241
18999SOL    HW258439   4.766   3.273   9.290  0.7757 -0.6833 -1.0983
19000SOL     OW58440   7.157   1.891   9.871 -0.1880 -0.4187 -0.0713
19000SOL    HW158441   7.210   1.970   9.885  0.8516 -1.0636 -0.2448
19000SOL    HW258442   7.207   1.839   9.808 -2.5674  0.3477 -2.7628
19001SOL     OW58443   2.582   4.801   7.853  0.2734  0.6655  0.5367
19001SOL    HW158444   2.591   4.742   7.928  1.5138 -1.0105 -0.8533
19001SOL    HW258445   2.488   4.808   7.839  0.0878 -0.7833  0.9104
19002SOL     OW58446   4.617   0.826  10.275  0.2684  0.2466  0.3963
19002SOL    HW158447   4.550   0.864  10.219  0.8563  2.6530  1.1807
19002SOL    HW258448   4.689   0.804  10.216 -0.6355 -1.0826 -0.2618
19003SOL     OW58449   2.875   2.418   3.147  0.1855 -0.2209  0.7323
19003SOL    HW158450   2.940   2.489   3.156 -2.1490  1.9507  1.6434
19003SOL    HW258451   2.844   2.404   3.236 -1.0458 -0.7724  0.2302
19004SOL     OW58452   5.903   2.165   6.758  0.5642 -0.1205  0.7841
19004SOL    HW158453   5.875   2.217   6.834 -0.7371  1.0536 -0.4437
19004SOL    HW258454   5.996   2.149   6.773  1.4031  3.6794  0.6590
19005SOL     OW58455   3.851   7.521   8.655  0.7755 -0.0543 -0.3277
19005SOL    HW158456   3.794   7.444   8.649  1.1250 -0.3933  0.5334
19005SOL    HW258457   3.821   7.578   8.585 -1.3728  0.2784  0.7556
19006SOL     OW58458   6.414   5.094   5.820 -0.3538 -0.1333 -0.0295
19006SOL    HW158459   6.475   5.128   5.886  2.0988 -1.6609 -1.3463
19006SOL    HW258460   6.370   5.021   5.864 -0.7613  0.5378  0.7149
19007SOL     OW58461   7.353   1.874   7.571  0.1509  0.4528  0.6600
19007SOL    HW158462   7.281   1.849   7.513 -0.2154 -1.2125  1.7702
19007SOL    HW258463   7.311   1.895   7.654  0.8819  0.1487  1.1162
19008SOL     OW58464   7.601   4.526   9.447 -0.2862  0.6601  0.0626
19008SOL    HW158465   7.626   4.490   9.362  0.7666  0.1177  0.5740
19008SOL    HW258466   7.681   4.519   9.500 -0.7527  1.5359  0.9168
19009SOL     OW58467   0.321   5.652   1.646 -0.9071 -0.7855 -0.0540
19009SOL    HW158468   0.337   5.627   1.555  1.7306  0.0594  0.1118
19009SOL    HW258469   0.289   5.742   1.640  0.3579 -0.3204 -0.1352
19010SOL     OW58470   0.573   7.588   4.034  0.1060 -0.4290  0.0781
19010SOL    HW158471   0.652   7.552   3.996 -0.6526 -1.4050 -0.6357
19010SOL    HW258472   0.602   7.664   4.083  1.1971  0.5881 -2.0335
19011SOL     OW58473   2.293   1.257   9.958 -0.1416  0.3408  0.4404
19011SOL    HW158474   2.339   1.263   9.874  1.7929  2.1679  1.5078
19011SOL    HW258475   2.295   1.164   9.979  0.8527  0.0483 -0.7724
19012SOL     OW58476   2.245   7.145   8.201  0.3418  0.1347  0.0858
19012SOL    HW158477   2.307   7.160   8.131 -0.0646 -1.5164 -0.6791
19012SOL    HW258478   2.277   7.066   8.246 -0.9091 -0.4685 -0.0304
19013SOL     OW58479   3.500   7.562   9.106  0.2961 -0.5948 -0.4215
19013SOL    HW158480   3.514   7.650   9.071  2.0384 -0.7402 -0.1949
19013SOL    HW258481   3.582   7.541   9.151 -0.7504 -1.6307  1.1003
19014SOL     OW58482   7.717   5.223  11.133 -0.1043 -0.3368 -0.3590
19014SOL    HW158483   7.737   5.275  11.055  0.1369 -1.3354 -0.9866
19014SOL    HW258484   7.789   5.243  11.194 -0.4449  0.6594 -0.2708
19015SOL     OW58485   6.527   6.010   7.510  0.1710  0.0949  0.3356
19015SOL    HW158486   6.570   6.062   7.579  2.4961 -1.2255 -0.0068
19015SOL    HW258487   6.484   5.939   7.557 -0.1922  0.4692  0.5748
19016SOL     OW58488   2.856   5.212   5.392  0.1554  0.1810  0.2560
19016SOL    HW158489   2.868   5.206   5.487  1.5961 -0.3121  0.0628
19016SOL    HW258490   2.781   5.271   5.381 -1.6519 -1.6728  1.7555
19017SOL     OW58491   3.001   6.183   0.658 -0.6440  0.0663 -0.7630
19017SOL    HW158492   3.049   6.165   0.577  0.4238 -0.7217  0.0088
19017SOL    HW258493   2.921   6.225   0.630 -0.4268 -0.4670 -2.2603
19018SOL     OW58494   1.523   4.249   0.165 -0.1805 -0.3553  0.0991
19018SOL    HW158495   1.484   4.336   0.165 -0.7449 -0.5412 -2.2961
19018SOL    HW258496   1.607   4.260   0.208 -1.6300  0.6246  2.8938
19019SOL     OW58497   6.961   1.934   1.143 -0.4735  0.4408 -0.3762
19019SOL    HW158498   6.908   1.939   1.063 -1.3828 -0.9343  0.0964
19019SOL    HW258499   6.900   1.905   1.211  1.0080 -2.2599 -0.0369
19020SOL     OW58500   6.393   5.838   1.481 -0.1436 -0.0599 -0.3715
19020SOL    HW158501   6.309   5.807   1.517  0.2856 -2.2611 -1.1143
19020SOL    HW258502   6.446   5.858   1.558 -1.8215  2.9937  0.1427
19021SOL     OW58503   2.402   1.173   1.769 -0.2627 -0.2476 -0.2766
19021SOL    HW158504   2.429   1.256   1.809  3.5407 -1.3854 -0.0839
19021SOL    HW258505   2.350   1.130   1.836 -0.3251  1.0257  0.5245
19022SOL     OW58506   7.632   3.484   9.021 -0.3325 -0.0582 -0.4042
19022SOL    HW158507   7.716   3.498   9.065 -0.3854 -0.0222 -0.3163
19022SOL    HW258508   7.586   3.420   9.074 -0.5871  0.3287 -0.1512
19023SOL     OW58509   0.579   5.488   5.204 -0.9083 -0.1427  0.4648
19023SOL    HW158510   0.534   5.434   5.139 -0.1099 -0.9472  0.5565
19023SOL    HW258511   0.670   5.492   5.173 -0.6460 -0.0504  1.2224
19024SOL     OW58512   0.518   1.638  11.971  0.3679 -0.3696 -0.3831
19024SOL    HW158513   0.595   1.657  12.025 -0.1881  0.4235  0.1572
19024SOL    HW258514   0.490   1.724  11.939  0.7600 -0.8279 -2.0669
19025SOL     OW58515   4.749   5.310   2.778 -0.4445  0.2323  0.5979
19025SOL    HW158516   4.763   5.215   2.772 -0.3432  0.2502  0.5570
19025SOL    HW258517   4.811   5.339   2.845  0.7151  0.5223 -0.5735
19026SOL     OW58518   7.041   7.893  11.536 -0.0336 -0.6043  0.3046
19026SOL    HW158519   7.107   7.911  11.604 -0.5163  0.3062  0.5513
19026SOL    HW258520   7.075   7.817  11.490  1.5021  0.1791  0.0610
19027SOL     OW58521   0.816   2.494   9.858 -0.6568  0.1178  0.0913
19027SOL    HW158522   0.823   2.453   9.772 -1.2542  0.9339 -0.3563
19027SOL    HW258523   0.753   2.439   9.905 -0.5965 -0.1274 -0.1084
19028SOL     OW58524   2.073   0.974  11.032 -0.1703  0.1285 -0.5149
19028SOL    HW158525   2.090   1.037  11.102  1.0384 -1.6746  0.8884
19028SOL    HW258526   2.150   0.979  10.976 -0.2042  0.1241 -0.5618
19029SOL     OW58527   6.355   1.776  11.462 -0.2667  0.6803 -0.5030
19029SOL    HW158528   6.323   1.864  11.484 -1.6657  0.5194 -1.8086
19029SOL    HW258529   6.290   1.740  11.402  1.1159 -0.6326 -1.2926
19030SOL     OW58530   7.728   3.096   8.299 -0.0550 -0.4278 -0.3895
19030SOL    HW158531   7.812   3.123   8.335  0.0974 -0.2725 -0.8511
19030SOL    HW258532   7.727   3.001   8.307 -0.9033 -0.2921  1.9371
19031SOL     OW58533   6.234   5.357   0.030  0.1100 -0.2437 -0.0495
19031SOL    HW158534   6.309   5.327   0.082 -0.6722 -2.2647 -0.0277
19031SOL    HW258535   6.272   5.378  -0.056  0.8134 -0.5332  0.1818
19032SOL     OW58536   5.861   7.731   7.877  0.0189  1.0415  0.5551
19032SOL    HW158537   5.912   7.701   7.952  0.3058 -0.1946 -0.1041
19032SOL    HW258538   5.925   7.740   7.806 -0.5331  0.2756 -0.0587
19033SOL     OW58539   4.843   5.704   4.016 -0.0145 -0.0669  0.1584
19033SOL    HW158540   4.930   5.669   4.035  0.5694  0.3223 -1.6253
19033SOL    HW258541   4.823   5.760   4.090 -0.3241 -2.8423  2.3705
19034SOL     OW58542   6.361   3.724   3.043 -0.6336  0.1154  0.6954
19034SOL    HW158543   6.378   3.773   3.124  1.5292  0.0539  0.3403
19034SOL    HW258544   6.370   3.790   2.974  1.6546 -0.5940  0.2575
19035SOL     OW58545   0.721   0.920   6.108 -0.4518  0.0463 -0.9375
19035SOL    HW158546   0.661   0.922   6.033 -2.8721 -1.4482  0.7906
19035SOL    HW258547   0.665   0.897   6.183  2.2486 -1.0846  0.9123
19036SOL     OW58548   0.543   6.385   9.739 -0.4317  0.1352  0.9172
19036SOL    HW158549   0.553   6.435   9.659  0.2021  0.1715  1.0109
19036SOL    HW258550   0.470   6.326   9.722  1.8543 -2.4244 -1.0750
19037SOL     OW58551   7.819   2.226   7.897 -0.0485 -0.0950 -0.1068
19037SOL    HW158552   7.810   2.270   7.982 -0.9806 -2.5053  1.1559
19037SOL    HW258553   7.889   2.162   7.911 -0.9807 -1.3027 -0.7427
19038SOL     OW58554   1.839   7.002   8.944  0.0880 -0.3197 -0.2586
19038SOL    HW158555   1.796   7.086   8.923 -1.3249 -1.3006 -1.5168
19038SOL    HW258556   1.932   7.018   8.927 -0.2504  0.7801 -1.2686
19039SOL     OW58557   2.997   6.672   1.310 -0.0959 -0.0643  0.7363
19039SOL    HW158558   3.034   6.696   1.225  1.3157 -1.0245  1.0576
19039SOL    HW258559   2.905   6.701   1.305 -0.0666 -0.1981 -1.1391
19040SOL     OW58560   2.125   2.001   9.449  0.2480  0.3235  0.2898
19040SOL    HW158561   2.076   1.925   9.479 -0.4854  1.0033  0.8875
19040SOL    HW258562   2.166   1.974   9.367 -2.0218  0.0504 -0.8207
19041SOL     OW58563   2.593   0.988   6.841 -0.6148  0.2587  0.1328
19041SOL    HW158564   2.554   0.938   6.913 -0.8872  0.6937  0.2913
19041SOL    HW258565   2.662   0.930   6.807 -1.8585 -0.8181 -0.6308
19042SOL     OW58566   3.758   0.919  10.942 -0.0789 -0.2671  0.4125
19042SOL    HW158567   3.747   1.014  10.949 -0.4344 -0.2837  0.1529
19042SOL    HW258568   3.747   0.902  10.848 -2.7021 -0.8678  0.7426
19043SOL     OW58569   1.224   0.676   9.245  0.2605 -0.1103 -0.5023
19043SOL    HW158570   1.153   0.688   9.308  1.5317  0.2613  0.9057
19043SOL    HW258571   1.207   0.742   9.178 -1.6489 -1.1294 -1.1215
19044SOL     OW58572   5.853   0.590   9.582 -0.7229  0.2232 -0.0183
19044SOL    HW158573   5.866   0.656   9.651 -1.5702 -0.3409  0.7064
19044SOL    HW258574   5.925   0.529   9.593 -2.4438 -1.5632  2.4179
19045SOL     OW58575   7.316   6.008   5.022  0.4534  0.0737 -0.4882
19045SOL    HW158576   7.393   6.061   5.001 -0.4901  1.2425 -1.1017
19045SOL    HW258577   7.322   5.994   5.117  0.6292  1.4567 -0.2673
19046SOL     OW58578   5.492   0.530   7.365 -0.1659  0.2138 -0.2753
19046SOL    HW158579   5.510   0.450   7.414 -1.7762  0.2267  0.4008
19046SOL    HW258580   5.573   0.548   7.318  0.8181 -0.8308  0.9425
19047SOL     OW58581   7.899   7.775   5.365 -0.2088  0.9370  0.3389
19047SOL    HW158582   7.993   7.764   5.379 -0.1840 -0.9987 -1.0329
19047SOL    HW258583   7.892   7.842   5.297  0.2715 -0.1130 -0.7620
19048SOL     OW58584   4.337   7.365   5.364 -0.6537  0.0179 -0.3439
19048SOL    HW158585   4.265   7.353   5.302  0.0467  0.3079 -1.2413
19048SOL    HW258586   4.384   7.282   5.364 -0.0402  0.3480 -1.0284
19049SOL     OW58587   7.723   7.576   3.477  0.3234  0.4115 -0.1274
19049SOL    HW158588   7.656   7.617   3.423  0.0130  0.0083 -0.0557
19049SOL    HW258589   7.738   7.491   3.436 -0.5516 -0.2634  0.9108
19050SOL     OW58590   3.747   6.378   9.723  0.1969  0.0817 -0.5556
19050SOL    HW158591   3.662   6.420   9.736  0.3076  0.8702 -2.1672
19050SOL    HW258592   3.767   6.393   9.630  2.3228  0.3370 -0.0952
19051SOL     OW58593   5.838   0.468   3.012  0.3144 -0.1894  0.0701
19051SOL    HW158594   5.835   0.488   2.919 -1.7324  2.0715  0.5039
19051SOL    HW258595   5.782   0.391   3.022 -1.0277  0.7004 -0.3736
19052SOL     OW58596   2.390   0.533   1.479  0.0818  0.4095 -0.0907
19052SOL    HW158597   2.401   0.465   1.546  1.1663  0.1581 -0.5194
19052SOL    HW258598   2.405   0.488   1.396 -2.2303  0.4836 -0.6325
19053SOL     OW58599   7.095   5.469  11.251 -0.2674 -0.0616 -0.3188
19053SOL    HW158600   7.008   5.487  11.285 -0.7954 -0.7400 -1.2704
19053SOL    HW258601   7.089   5.487  11.157  0.5062 -0.4939 -0.4656
19054SOL     OW58602   1.405   2.276   4.394 -0.3446 -0.7015  0.1684
19054SOL    HW158603   1.414   2.353   4.338 -1.1337 -1.6229 -1.2700
19054SOL    HW258604   1.311   2.272   4.413  0.0420  0.4402  2.8727
19055SOL     OW58605   0.195   2.924   3.037 -0.2043 -0.4757  0.4098
19055SOL    HW158606   0.164   2.841   3.072 -3.8143  1.1914  1.7382
19055SOL    HW258607   0.119   2.961   2.992  1.2852  2.0472 -0.2339
19056SOL     OW58608   4.554   6.480   4.397 -0.5695 -0.4492 -0.4649
19056SOL    HW158609   4.604   6.493   4.477 -0.3179 -1.2622 -0.4755
19056SOL    HW258610   4.503   6.560   4.387 -1.3019 -0.7033  1.0032
19057SOL     OW58611   3.249   3.696  11.274  0.6509 -0.6156 -0.3598
19057SOL    HW158612   3.157   3.712  11.252 -0.3097 -5.1349 -0.5527
19057SOL    HW258613   3.298   3.745  11.207 -1.7541 -1.0105 -2.5795
19058SOL     OW58614   0.262   0.615   2.829 -0.1601 -0.4267 -0.4339
19058SOL    HW158615   0.319   0.684   2.796  2.7495 -3.1974 -1.7855
19058SOL    HW258616   0.174   0.652   2.825  1.2322  3.2703 -0.6156
19059SOL     OW58617   3.764   7.150   0.386  0.3255  0.5967 -0.7615
19059SOL    HW158618   3.858   7.167   0.380  0.6088 -0.9323 -1.1656
19059SOL    HW258619   3.742   7.111   0.301 -0.2169 -0.9509  0.0515
19060SOL     OW58620   0.975   4.472  12.317  0.2735 -0.2957 -0.4482
19060SOL    HW158621   0.887   4.443  12.343  0.2242  1.3002  1.4811
19060SOL    HW258622   0.961   4.523  12.238 -0.7044  0.6311  0.2907
19061SOL     OW58623   6.357   3.378   3.862 -0.7789 -0.2807  0.6292
19061SOL    HW158624   6.452   3.380   3.849 -0.9163 -0.2971 -0.5508
19061SOL    HW258625   6.336   3.285   3.867 -0.8406 -0.3126 -0.1133
19062SOL     OW58626   5.564   2.653   8.299 -0.1805 -0.0620 -0.0924
19062SOL    HW158627   5.654   2.622   8.294  0.2920  1.3570 -0.6356
19062SOL    HW258628   5.569   2.747   8.285 -1.8427 -0.0757 -1.1301
19063SOL     OW58629   0.201   6.246   6.001 -0.0413 -0.0519 -0.3838
19063SOL    HW158630   0.242   6.223   6.085  1.7581 -2.3910 -1.7914
19063SOL    HW258631   0.108   6.229   6.016 -0.0634  1.3894  1.6426
19064SOL     OW58632   3.188   2.275  11.628 -0.1207  0.1585  0.1151
19064SOL    HW158633   3.178   2.271  11.724 -0.7822  1.4314  0.1184
19064SOL    HW258634   3.219   2.188  11.604  0.0952 -0.1745  1.4962
19065SOL     OW58635   1.462   5.078   6.104 -0.0659  0.0242 -0.3624
19065SOL    HW158636   1.541   5.045   6.145 -0.0056  0.1796 -0.3535
19065SOL    HW258637   1.427   5.142   6.166  0.9138  1.4951 -1.2585
19066SOL     OW58638   7.580   5.471   5.914 -0.0445 -0.1904 -0.1759
19066SOL    HW158639   7.524   5.520   5.974  0.2669 -0.0179 -0.0233
19066SOL    HW258640   7.597   5.532   5.842  0.3759 -0.0576  0.0334
19067SOL     OW58641   5.572   5.194   8.059  0.1329  0.8151  0.0374
19067SOL    HW158642   5.524   5.112   8.057 -0.7474  1.3275 -0.1600
19067SOL    HW258643   5.653   5.173   8.106 -0.5397  0.0849  0.9025
19068SOL     OW58644   0.924   6.210   1.369  0.1561  0.4668 -0.1144
19068SOL    HW158645   0.921   6.239   1.278  1.1998  0.5556 -0.1431
19068SOL    HW258646   0.871   6.131   1.371 -0.6332  0.9713 -0.5945
19069SOL     OW58647   2.890   3.274   8.146  0.0434 -0.0068  0.3610
19069SOL    HW158648   2.903   3.303   8.236 -0.1419  0.5097  0.2244
19069SOL    HW258649   2.866   3.354   8.098  0.0551 -0.2916 -0.1266
19070SOL     OW58650   7.620   2.426   4.298  0.2352 -0.2570  0.1292
19070SOL    HW158651   7.606   2.385   4.383  0.4201  0.1893  0.3742
19070SOL    HW258652   7.649   2.514   4.318 -2.5459  0.8803 -0.3818
19071SOL     OW58653   6.201   6.091  11.825  0.1186  0.1798  0.6596
19071SOL    HW158654   6.276   6.037  11.851  0.7406  0.5030 -0.3800
19071SOL    HW258655   6.204   6.091  11.729 -1.7898 -0.5737  0.5565
19072SOL     OW58656   1.200   5.177  12.129 -0.0204  0.4054  0.2726
19072SOL    HW158657   1.139   5.156  12.059  1.3405 -1.6198 -0.3950
19072SOL    HW258658   1.180   5.114  12.198  0.3837  0.6553  0.6209
19073SOL     OW58659   6.030   0.736   7.946  0.3379 -0.2036 -0.0825
19073SOL    HW158660   5.940   0.705   7.948  0.1765  0.2861  0.3573
19073SOL    HW258661   6.046   0.771   8.034  0.5153  0.9398 -0.5454
19074SOL     OW58662   4.548   6.618   0.137 -0.1221  0.6868 -0.2959
19074SOL    HW158663   4.613   6.686   0.119 -1.2944  1.5363 -1.4793
19074SOL    HW258664   4.563   6.552   0.068 -1.5100  1.6497 -1.5653
19075SOL     OW58665   5.840   3.802   5.334 -0.2097 -0.1032 -0.0866
19075SOL    HW158666   5.819   3.841   5.419 -0.5307  1.6494 -0.9297
19075SOL    HW258667   5.883   3.719   5.356  0.4003  0.6533  1.8024
19076SOL     OW58668   6.379   5.852   6.201 -0.0725  0.0763  0.1805
19076SOL    HW158669   6.440   5.907   6.151  0.6174  0.0926  1.0152
19076SOL    HW258670   6.293   5.872   6.164  0.2933  0.9411 -0.2291
19077SOL     OW58671   2.120   3.583   1.557 -0.0167 -0.4906  0.0723
19077SOL    HW158672   2.055   3.601   1.625  0.2840  1.2947 -0.0471
19077SOL    HW258673   2.079   3.517   1.501 -1.4848  0.1246  0.3594
19078SOL     OW58674   0.616   6.520   9.340 -0.3832  0.4099 -0.5631
19078SOL    HW158675   0.704   6.548   9.366 -1.0637  1.5686  0.6117
19078SOL    HW258676   0.563   6.533   9.418 -1.6651 -0.0333 -1.3308
19079SOL     OW58677   1.737   5.051   0.889  0.2326  0.6589 -0.0096
19079SOL    HW158678   1.708   4.986   0.826 -1.4945  1.7616 -0.4117
19079SOL    HW258679   1.824   5.021   0.916 -0.7948 -2.1718  0.3892
19080SOL     OW58680   4.326   2.709   7.191 -0.3790  1.9541 -0.4791
19080SOL    HW158681   4.323   2.614   7.174 -1.6857  1.7434  0.7995
19080SOL    HW258682   4.357   2.746   7.108  0.1645  0.4170 -1.0083
19081SOL     OW58683   5.126   1.157   1.336  0.1378 -0.1229  0.2113
19081SOL    HW158684   5.091   1.239   1.370  1.5804  0.3293  0.6936
19081SOL    HW258685   5.175   1.182   1.257 -0.9542 -0.7966 -0.7137
19082SOL     OW58686   7.115   5.678  11.503  0.1283  0.1859 -0.7234
19082SOL    HW158687   7.182   5.633  11.452 -1.0436 -0.6215 -1.6076
19082SOL    HW258688   7.088   5.751  11.447 -0.1610  0.1460 -0.6348
19083SOL     OW58689   6.408   2.209   6.919  0.0229 -0.3909  0.5167
19083SOL    HW158690   6.349   2.279   6.891  0.9699  0.1470 -0.2035
19083SOL    HW258691   6.469   2.251   6.979  0.2521 -0.7219  0.5195
19084SOL     OW58692   0.705   5.933  10.835 -0.2772  0.0782 -0.7862
19084SOL    HW158693   0.683   5.841  10.851  0.2820  0.1448  0.5159
19084SOL    HW258694   0.690   5.976  10.920  1.1692  0.8335 -0.8791
19085SOL     OW58695   1.398   7.559   1.731  0.5247  0.1445 -0.8034
19085SOL    HW158696   1.359   7.618   1.796  0.0105 -0.0582 -0.9193
19085SOL    HW258697   1.483   7.536   1.768  1.6820  2.5942 -1.7254
19086SOL     OW58698   1.958   1.897   6.189 -0.3634  0.1158 -0.1761
19086SOL    HW158699   1.925   1.886   6.099  1.8348 -0.1478 -0.9953
19086SOL    HW258700   1.966   1.808   6.222  3.4665 -0.2016 -1.5505
19087SOL     OW58701   5.459   0.500   4.449 -0.0610 -0.0997  0.0251
19087SOL    HW158702   5.529   0.535   4.395 -1.2214 -1.3434 -2.4118
19087SOL    HW258703   5.454   0.561   4.523  2.1569  1.1873 -0.7799
19088SOL     OW58704   3.364   7.921   9.180 -0.2700 -0.3576  0.1617
19088SOL    HW158705   3.385   8.013   9.195  0.0169 -0.5464  0.9827
19088SOL    HW258706   3.347   7.915   9.086 -0.3190  0.5365  0.1033
19089SOL     OW58707   5.336   6.988   9.678 -0.0870  0.2283 -0.3687
19089SOL    HW158708   5.292   6.917   9.631 -0.2816 -0.4277  0.7623
19089SOL    HW258709   5.425   6.989   9.642  0.0481 -0.8817 -0.1094
19090SOL     OW58710   0.521   7.594  11.557 -0.3586 -0.1610 -1.0097
19090SOL    HW158711   0.427   7.575  11.551 -1.3278  3.4944  0.3028
19090SOL    HW258712   0.544   7.571  11.647 -0.4789  0.7289 -0.7476
19091SOL     OW58713   2.537   7.602   7.034  0.1721  0.4610 -0.6985
19091SOL    HW158714   2.536   7.697   7.041  1.0039  0.5164 -1.2245
19091SOL    HW258715   2.616   7.575   7.080 -0.8793 -0.1162  0.8564
19092SOL     OW58716   0.815   6.288   3.538  0.1829  0.7479 -0.0961
19092SOL    HW158717   0.722   6.313   3.538 -0.1465 -0.3912 -1.2417
19092SOL    HW258718   0.824   6.229   3.613 -0.7690 -1.5636 -1.6791
19093SOL     OW58719   0.185   2.330   9.699 -0.1051 -0.4859  0.4122
19093SOL    HW158720   0.258   2.388   9.721 -0.3464  0.3527 -0.9149
19093SOL    HW258721   0.201   2.251   9.750  0.3321  0.6573  2.1341
19094SOL     OW58722   7.449   2.590   3.542  0.1932  0.2736  0.0925
19094SOL    HW158723   7.441   2.530   3.468 -2.1770  0.7136 -0.0694
19094SOL    HW258724   7.390   2.555   3.609  0.5331  1.1594  0.8835
19095SOL     OW58725   3.963   0.073   1.494  0.2755  0.4573  0.0518
19095SOL    HW158726   3.930   0.158   1.523  2.1537  0.8833  1.1068
19095SOL    HW258727   4.015   0.093   1.416 -2.3030 -0.2938 -1.9997
19096SOL     OW58728   5.542   1.280   1.344  0.7996  0.8387  0.2975
19096SOL    HW158729   5.493   1.350   1.386 -0.2251 -0.0495  0.6450
19096SOL    HW258730   5.616   1.264   1.402 -0.5700 -0.3434  1.8230
19097SOL     OW58731   2.915   4.806   5.198  0.1197 -0.0291 -0.1651
19097SOL    HW158732   2.979   4.858   5.150 -1.1879  3.0784  1.2191
19097SOL    HW258733   2.956   4.787   5.282  0.9896 -2.2835 -1.0279
19098SOL     OW58734   6.750   5.541   8.861  0.0765  0.1849  0.3492
19098SOL    HW158735   6.685   5.563   8.927  0.4546  0.5918  0.5830
19098SOL    HW258736   6.810   5.481   8.905 -0.2485 -0.3548  0.0726
19099SOL     OW58737   0.621   1.489   7.784 -0.0619 -0.2939 -0.2411
19099SOL    HW158738   0.578   1.572   7.763  0.8155  0.5931  1.2935
19099SOL    HW258739   0.707   1.496   7.742  1.6276  1.4079  3.1245
19100SOL     OW58740   0.152   0.027   3.162  0.5387 -0.1690 -0.0795
19100SOL    HW158741   0.207  -0.042   3.198 -2.2173 -2.7485 -0.4445
19100SOL    HW258742   0.189   0.046   3.076  0.9946 -1.7049 -0.2433
19101SOL     OW58743   6.221   5.282   8.850 -0.0419 -0.0517 -0.2625
19101SOL    HW158744   6.126   5.291   8.859 -0.0804 -1.4708  1.3385
19101SOL    HW258745   6.232   5.230   8.771 -0.9240 -3.3987  1.6089
19102SOL     OW58746   0.912   5.994   7.392 -0.3782  0.0441 -0.0464
19102SOL    HW158747   0.907   5.945   7.474  1.1681 -0.1812 -0.0481
19102SOL    HW258748   0.858   5.944   7.331  0.5801 -1.2979  0.1518
19103SOL     OW58749   1.274   5.127  10.021 -0.1528 -0.2114 -0.1120
19103SOL    HW158750   1.353   5.091   9.979 -0.3702 -0.7961 -0.0327
19103SOL    HW258751   1.239   5.189   9.958 -1.0174 -1.7899 -1.2418
19104SOL     OW58752   4.134   5.619   9.787  0.0543  0.1320  0.2626
19104SOL    HW158753   4.123   5.574   9.871 -1.0146  1.4390  0.8629
19104SOL    HW258754   4.098   5.558   9.723 -0.2204 -0.3852  0.8924
19105SOL     OW58755   4.329   3.197  11.110  0.0508  0.1554  0.3878
19105SOL    HW158756   4.327   3.254  11.187  1.0220 -0.0081  0.5426
19105SOL    HW258757   4.239   3.164  11.103 -0.5518  1.7485  0.2464
19106SOL     OW58758   0.891   1.747   7.984 -0.1689  0.4182  0.2210
19106SOL    HW158759   0.867   1.815   7.920  0.5652  0.9132  0.4633
19106SOL    HW258760   0.976   1.774   8.017 -0.3797 -0.0271  1.1528
19107SOL     OW58761   4.025   6.087   2.191 -0.1218 -0.5145 -0.2926
19107SOL    HW158762   4.105   6.130   2.223 -0.0575 -1.2399  0.5544
19107SOL    HW258763   3.970   6.078   2.268 -0.5699 -1.0087 -0.6640
19108SOL     OW58764   5.027   3.246   5.700  0.0645  0.0551  0.7199
19108SOL    HW158765   5.099   3.198   5.740 -0.8376 -0.3957  1.8503
19108SOL    HW258766   5.013   3.321   5.758 -0.4072  0.1123  0.5369
19109SOL     OW58767   5.067   1.183   3.641 -0.0121  0.2637  0.1677
19109SOL    HW158768   5.146   1.134   3.620 -0.5266  0.3205 -2.2552
19109SOL    HW258769   5.003   1.116   3.666  0.5363  0.1364  1.2424
19110SOL     OW58770   1.760   2.428  10.806 -0.1354 -0.1281  0.4568
19110SOL    HW158771   1.763   2.334  10.822 -0.7894 -0.0087  1.3738
19110SOL    HW258772   1.852   2.455  10.801  0.0511 -0.8706 -0.1880
19111SOL     OW58773   7.924   6.863   7.985  0.0584 -0.2345 -0.0688
19111SOL    HW158774   7.968   6.868   7.900 -0.1019  1.2855 -0.0848
19111SOL    HW258775   7.993   6.837   8.046  0.2426 -1.0271 -0.5903
19112SOL     OW58776   3.535   6.776   7.205 -0.5909 -0.3279 -0.1678
19112SOL    HW158777   3.469   6.804   7.267 -0.0442 -1.1807  0.8397
19112SOL    HW258778   3.536   6.844   7.137 -1.8601  0.1311  0.2570
19113SOL     OW58779   6.506   4.997  11.669  0.3263  0.3681 -0.0962
19113SOL    HW158780   6.484   5.035  11.584 -0.0897 -0.4725 -0.3726
19113SOL    HW258781   6.536   4.909  11.649  0.4036  0.2278  0.6155
19114SOL     OW58782   1.892   7.636   1.617  0.0821  0.3188  0.9241
19114SOL    HW158783   1.859   7.577   1.685  0.1976 -0.9210 -0.0747
19114SOL    HW258784   1.925   7.712   1.666 -0.7993 -0.0742  2.1761
19115SOL     OW58785   5.156   2.570   0.905 -0.1192 -0.0531  0.2657
19115SOL    HW158786   5.204   2.634   0.956  0.1729 -1.1145  1.3710
19115SOL    HW258787   5.223   2.513   0.868 -0.4245 -0.6463  0.5924
19116SOL     OW58788   7.813   1.717  11.750 -0.3067  0.2317  0.0745
19116SOL    HW158789   7.885   1.666  11.714  0.0843  1.0381 -0.3015
19116SOL    HW258790   7.735   1.683  11.706 -0.4056 -1.7568  1.6432
19117SOL     OW58791   2.354   6.078  10.518  0.1188  0.2231  0.2286
19117SOL    HW158792   2.267   6.054  10.487 -0.4192  0.2984  1.6224
19117SOL    HW258793   2.339   6.140  10.589  1.3142  0.3264  0.4227
19118SOL     OW58794   1.770   1.051   5.214 -0.4186 -0.1973 -0.3070
19118SOL    HW158795   1.835   1.119   5.229  0.6291 -1.0411 -0.9003
19118SOL    HW258796   1.722   1.080   5.136 -0.6970  0.3691  0.0677
19119SOL     OW58797   6.679   2.990   3.184 -0.3442 -0.5107  0.0277
19119SOL    HW158798   6.743   3.019   3.119  1.7575  0.8935  2.4993
19119SOL    HW258799   6.725   2.924   3.236 -0.9243  0.3343  1.7083
19120SOL     OW58800   2.294   0.167  10.368  0.6844 -0.3480  0.3062
19120SOL    HW158801   2.375   0.211  10.341  0.3047 -0.6428 -1.4390
19120SOL    HW258802   2.251   0.231  10.425  0.8682  0.9395 -0.9404
19121SOL     OW58803   5.578   0.130   5.376  0.0840  1.1609 -0.1536
19121SOL    HW158804   5.595   0.129   5.470  1.4006  0.3734 -0.3772
19121SOL    HW258805   5.628   0.205   5.343 -0.6715  1.6591 -0.1839
19122SOL     OW58806   3.640   1.182  10.034 -0.2775  0.5510 -0.2669
19122SOL    HW158807   3.564   1.140   9.994 -1.0455 -0.4906  2.0870
19122SOL    HW258808   3.688   1.221   9.961 -1.8472 -0.7480 -2.0729
19123SOL     OW58809   2.280   6.225   6.228 -0.8000 -0.1113 -0.3170
19123SOL    HW158810   2.310   6.143   6.265 -1.5576 -0.4274 -0.3778
19123SOL    HW258811   2.185   6.224   6.240 -0.8965  0.4503 -0.9185
19124SOL     OW58812   4.357   0.843   6.716  0.4857  0.1439 -0.2027
19124SOL    HW158813   4.435   0.865   6.665 -0.3079 -0.2069 -1.6216
19124SOL    HW258814   4.284   0.858   6.656 -0.4713 -0.4648  0.7766
19125SOL     OW58815   7.042   2.749   8.755 -0.5915  0.1773  0.2922
19125SOL    HW158816   7.126   2.704   8.745 -0.9675 -0.4737 -0.0316
19125SOL    HW258817   7.064   2.842   8.757  0.2983 -0.0382  1.9304
19126SOL     OW58818   0.214   6.488   5.891 -0.1435  0.7881  0.3568
19126SOL    HW158819   0.211   6.418   5.957 -0.0068 -0.5706 -1.0362
19126SOL    HW258820   0.300   6.479   5.851 -1.0598  0.1001 -1.5505
19127SOL     OW58821   4.202   6.539   9.897  0.1231  0.8242  0.0001
19127SOL    HW158822   4.176   6.629   9.876  1.2012  0.8521 -1.3933
19127SOL    HW258823   4.121   6.497   9.927 -0.2940  2.3680  1.1675
19128SOL     OW58824   5.082   5.961  10.268 -0.1697  0.0367 -0.3702
19128SOL    HW158825   5.013   5.921  10.321 -0.7577  0.3354 -0.8968
19128SOL    HW258826   5.073   6.055  10.286  0.9034 -0.0186  0.5098
19129SOL     OW58827   1.890   3.937  11.296 -0.0857 -0.3697 -0.3154
19129SOL    HW158828   1.893   4.023  11.339 -1.0390  0.2099 -1.3693
19129SOL    HW258829   1.800   3.929  11.264  0.6345 -0.6385 -2.4460
19130SOL     OW58830   7.883   6.786  10.858  0.4337  0.1763  0.0453
19130SOL    HW158831   7.855   6.726  10.789 -0.2818  0.5799 -0.0312
19130SOL    HW258832   7.976   6.769  10.869  0.9270  1.1410 -2.0991
19131SOL     OW58833   2.079   2.248   8.165  1.5243  0.1215 -0.5179
19131SOL    HW158834   2.126   2.272   8.085  0.1795 -0.6955 -1.5733
19131SOL    HW258835   1.996   2.295   8.159  1.5054  0.2447  0.5321
19132SOL     OW58836   6.224   0.114   2.159 -0.0247  0.0644  0.1979
19132SOL    HW158837   6.229   0.091   2.067  0.9824  1.1138 -0.0263
19132SOL    HW258838   6.271   0.196   2.167 -2.1966  1.3140  1.2222
19133SOL     OW58839   0.972   2.524  10.280 -0.0892 -0.0700 -0.0662
19133SOL    HW158840   1.032   2.581  10.233  0.3685 -1.2099 -0.9179
19133SOL    HW258841   1.004   2.435  10.263 -1.6703 -0.6810 -0.0895
19134SOL     OW58842   2.508   0.685   5.798 -0.1792  0.0043  0.5027
19134SOL    HW158843   2.423   0.658   5.764 -0.4951  0.0341  1.2548
19134SOL    HW258844   2.565   0.687   5.721 -1.0679  0.8377 -0.1553
19135SOL     OW58845   6.608   2.841   4.060 -0.3384  0.2244 -0.3076
19135SOL    HW158846   6.678   2.802   4.112 -1.4413 -0.2989  0.8391
19135SOL    HW258847   6.568   2.767   4.015 -0.0055  0.5562 -1.1653
19136SOL     OW58848   0.334   7.953   8.412 -0.0228  0.0990 -0.0515
19136SOL    HW158849   0.375   7.888   8.468 -0.7954  0.0156  0.4351
19136SOL    HW258850   0.404   8.015   8.392  0.9969 -1.4310 -1.3981
19137SOL     OW58851   3.544   5.656   7.042  0.3448 -0.3345 -0.5837
19137SOL    HW158852   3.593   5.595   7.097  0.0867 -0.8390 -0.9068
19137SOL    HW258853   3.469   5.606   7.011 -0.4864  0.4833  0.0543
19138SOL     OW58854   4.821   2.743  11.578 -0.2888  0.1001  0.0716
19138SOL    HW158855   4.841   2.835  11.595 -0.0756 -0.1700  1.4201
19138SOL    HW258856   4.787   2.742  11.488  0.6895  1.3313 -0.3431
19139SOL     OW58857   2.692   2.544  12.344  0.1005 -0.2819 -0.0496
19139SOL    HW158858   2.698   2.500  12.259  1.9608  0.1191 -0.1674
19139SOL    HW258859   2.601   2.573  12.349 -0.0609 -0.3365 -1.8996
19140SOL     OW58860   1.895   2.293   9.378  0.3622  0.6146  0.3808
19140SOL    HW158861   1.883   2.199   9.362 -0.9851  0.8069  0.1464
19140SOL    HW258862   1.878   2.303   9.472 -3.4179  1.1156 -0.2004
19141SOL     OW58863   7.780   2.455  11.699 -0.0705  0.2214 -0.6675
19141SOL    HW158864   7.694   2.448  11.657  0.0819 -0.5978 -0.8624
19141SOL    HW258865   7.761   2.459  11.792 -0.2995 -0.7592 -0.6580
19142SOL     OW58866   2.955   5.534  10.245 -0.0377 -0.0258  0.1564
19142SOL    HW158867   3.042   5.553  10.212  0.0433  0.0771  0.4251
19142SOL    HW258868   2.949   5.584  10.327 -0.3781  0.0350  0.0966
19143SOL     OW58869   6.646   1.115   3.921 -0.3137  0.4861 -0.8263
19143SOL    HW158870   6.585   1.115   3.995  0.4619  1.2775 -0.1720
19143SOL    HW258871   6.731   1.098   3.960  0.1740  1.4007 -1.4667
19144SOL     OW58872   2.927   3.369   6.189 -0.0672 -0.6731 -0.0510
19144SOL    HW158873   2.869   3.298   6.217 -0.0279 -0.6826  0.0064
19144SOL    HW258874   2.895   3.446   6.235 -0.4094 -0.5540 -0.4837
19145SOL     OW58875   7.201   5.637   3.090 -0.5357 -0.6834  0.1087
19145SOL    HW158876   7.286   5.677   3.106 -0.7964 -0.7933  1.9217
19145SOL    HW258877   7.137   5.698   3.127 -1.4197  0.1325 -2.5400
19146SOL     OW58878   3.910   7.620  10.492 -0.3027 -0.1119 -0.0912
19146SOL    HW158879   3.929   7.655  10.405 -0.5526 -4.3666 -2.0777
19146SOL    HW258880   3.996   7.611  10.534  0.0991 -0.4799 -0.9780
19147SOL     OW58881   2.915   6.146   1.706  0.2489 -0.2183  0.3149
19147SOL    HW158882   2.825   6.155   1.675 -0.1234 -2.3246  0.6005
19147SOL    HW258883   2.968   6.189   1.639 -1.0095  2.7818  1.0613
19148SOL     OW58884   0.905   6.952   6.669 -0.0632  0.1418  0.1372
19148SOL    HW158885   0.813   6.941   6.649 -0.0357 -0.4011  0.2988
19148SOL    HW258886   0.927   7.039   6.634 -0.6074  0.2373  0.0220
19149SOL     OW58887   1.409   6.393  11.240 -0.1698 -0.8922 -0.0410
19149SOL    HW158888   1.496   6.368  11.210  0.2250  0.3533 -0.0128
19149SOL    HW258889   1.384   6.465  11.181 -0.0208  0.5757  1.6177
19150SOL     OW58890   5.522   6.445   8.617  0.3780 -0.0031  0.2937
19150SOL    HW158891   5.530   6.364   8.667 -2.9942 -0.8280 -0.2690
19150SOL    HW258892   5.455   6.427   8.551  0.5366  2.8090 -0.7894
19151SOL     OW58893   5.647   3.153   0.852  0.1915  0.1127 -0.2466
19151SOL    HW158894   5.573   3.152   0.791 -0.1741 -1.6696  0.1697
19151SOL    HW258895   5.679   3.063   0.852  0.6266  0.2344  1.6579
19152SOL     OW58896   2.059   4.249  11.050 -0.2941  0.3987  0.1763
19152SOL    HW158897   2.029   4.198  10.975  0.6615 -0.8626  0.6293
19152SOL    HW258898   1.984   4.303  11.073 -1.1465 -0.3852 -0.6776
19153SOL     OW58899   4.993   2.132   9.384 -0.4676  0.4015 -0.5013
19153SOL    HW158900   5.024   2.117   9.473  1.4158  1.0218 -0.9978
19153SOL    HW258901   4.910   2.178   9.394  0.1129  1.1765  0.9325
19154SOL     OW58902   7.212   7.155   3.068  0.3217 -0.0433 -0.2486
19154SOL    HW158903   7.194   7.172   3.161  1.2632 -1.1221  0.1588
19154SOL    HW258904   7.128   7.128   3.031 -0.1255  0.6841  0.2132
19155SOL     OW58905   7.181   2.008   1.255  0.7765 -0.3683  0.4589
19155SOL    HW158906   7.093   1.994   1.220  0.4725 -0.4521  1.2361
19155SOL    HW258907   7.214   2.084   1.208  0.3882 -0.4836 -0.0108
19156SOL     OW58908   3.026   4.844   1.891 -0.0806 -0.2552  0.0865
19156SOL    HW158909   3.038   4.795   1.972  1.0398 -1.7945 -0.9562
19156SOL    HW258910   3.065   4.789   1.823 -3.3739 -0.3309 -1.9709
19157SOL     OW58911   7.016   0.984  12.381  0.0189  0.3704  0.0375
19157SOL    HW158912   6.934   1.034  12.385  0.2031  0.6485  0.3768
19157SOL    HW258913   7.012   0.925  12.455 -0.3889 -0.4278 -0.6035
19158SOL     OW58914   1.070   1.121   2.379 -0.8504  0.2470  0.3273
19158SOL    HW158915   0.998   1.134   2.316  0.2678 -0.7279 -1.1995
19158SOL    HW258916   1.148   1.115   2.325  0.1526 -0.7109  1.8260
19159SOL     OW58917   7.377   4.651  10.635 -0.3782 -0.1160  0.4526
19159SOL    HW158918   7.463   4.620  10.609 -0.9444 -1.1819 -0.2405
19159SOL    HW258919   7.316   4.605  10.577 -1.5495 -0.8194  2.1439
19160SOL     OW58920   5.175   7.023   4.144  0.0506  0.4468  0.0436
19160SOL    HW158921   5.252   7.003   4.197 -0.0215  1.0124  0.3749
19160SOL    HW258922   5.130   6.939   4.134 -1.3816  0.6741  3.1652
19161SOL     OW58923   3.325   1.598   3.719 -0.1781 -0.3613 -0.3720
19161SOL    HW158924   3.339   1.690   3.696 -0.0610 -0.4993 -0.8802
19161SOL    HW258925   3.236   1.579   3.688 -1.4110  0.3832  2.4193
19162SOL     OW58926   1.564   6.831  12.019  0.0891 -0.4550 -0.3258
19162SOL    HW158927   1.487   6.786  11.985 -1.3501  1.6231  0.0230
19162SOL    HW258928   1.554   6.827  12.114 -1.1542  2.1950 -0.2523
19163SOL     OW58929   2.356   0.952   9.661 -0.0676  0.2020 -0.0899
19163SOL    HW158930   2.367   1.047   9.657 -1.0415  0.4934  2.3200
19163SOL    HW258931   2.274   0.940   9.708  0.0565 -1.8489 -0.3273
19164SOL     OW58932   3.528   5.389   6.634 -0.7242  0.3618 -0.0867
19164SOL    HW158933   3.585   5.368   6.560  0.4894 -0.4098  1.0221
19164SOL    HW258934   3.587   5.395   6.709 -2.0206  0.2977  0.9826
19165SOL     OW58935   2.143   0.647   2.226 -0.3180 -0.1824 -0.1601
19165SOL    HW158936   2.143   0.686   2.313  1.8554  0.5024 -0.4161
19165SOL    HW258937   2.211   0.695   2.178  1.4300 -3.1825 -0.9579
19166SOL     OW58938   6.977   4.425   7.632 -0.0100 -0.2947 -0.6109
19166SOL    HW158939   6.924   4.389   7.562  0.2737  0.2371 -1.1083
19166SOL    HW258940   6.937   4.510   7.652  0.2401 -0.1950 -0.5187
19167SOL     OW58941   5.128   6.036   2.791 -0.2594 -0.3955 -0.2770
19167SOL    HW158942   5.066   6.094   2.748 -2.1094 -1.1107  1.2765
19167SOL    HW258943   5.214   6.072   2.770 -1.3110  2.7000  0.2991
19168SOL     OW58944   0.831   2.166   8.624 -0.0374 -0.4874 -0.5291
19168SOL    HW158945   0.789   2.247   8.597 -1.1191 -1.0758 -0.6975
19168SOL    HW258946   0.884   2.190   8.700 -0.1313  0.4171 -0.7394
19169SOL     OW58947   4.493   7.497   6.332 -0.4145  0.3357  0.2547
19169SOL    HW158948   4.588   7.503   6.317 -0.3876  0.1376  0.3396
19169SOL    HW258949   4.479   7.544   6.415 -0.2820 -0.2898  0.6358
19170SOL     OW58950   6.129   4.542  11.001 -0.2633  0.8982  0.3148
19170SOL    HW158951   6.152   4.566  10.911 -0.6951  1.2946  0.3059
19170SOL    HW258952   6.034   4.550  11.004 -0.3765 -0.3600  0.4512
19171SOL     OW58953   5.097   4.997   5.196 -0.2926 -0.1196 -0.3293
19171SOL    HW158954   5.105   4.904   5.218 -0.8998 -0.2146 -0.5104
19171SOL    HW258955   5.111   5.042   5.280 -0.8359 -0.4085 -0.0787
19172SOL     OW58956   2.624   0.978   0.843 -0.0027 -0.0326  0.2084
19172SOL    HW158957   2.601   1.061   0.887 -1.9859  0.2729 -1.2328
19172SOL    HW258958   2.676   1.005   0.768 -0.6594 -0.0708 -0.2678
19173SOL     OW58959   5.341   3.058  11.785  0.0909 -0.1936  0.5843
19173SOL    HW158960   5.318   2.984  11.729 -1.3682 -0.8443  1.9724
19173SOL    HW258961   5.416   3.099  11.741  0.9813 -2.5050 -0.2114
19174SOL     OW58962   0.851   2.905   3.131  0.1381 -0.4367 -0.4188
19174SOL    HW158963   0.923   2.969   3.136 -0.0704  0.0068 -2.2277
19174SOL    HW258964   0.778   2.954   3.093 -1.2117 -0.8509  1.5035
19175SOL     OW58965   1.953   3.620  11.656 -0.1686 -0.3072 -0.3594
19175SOL    HW158966   2.041   3.626  11.694 -0.9602  0.1655  1.5643
19175SOL    HW258967   1.896   3.654  11.725 -2.2376 -3.7338 -0.1814
19176SOL     OW58968   3.911   3.027  11.742  0.2434  0.2945  0.0896
19176SOL    HW158969   3.902   2.985  11.828 -0.2777 -0.6216 -0.3994
19176SOL    HW258970   3.923   2.954  11.681 -2.8445  0.6022 -1.0936
19177SOL     OW58971   7.291   1.910   3.060 -0.0445 -0.5415  0.8509
19177SOL    HW158972   7.247   1.916   3.144  1.3564  0.1068  1.5784
19177SOL    HW258973   7.294   2.000   3.028 -2.1204 -0.9660 -0.7902
19178SOL     OW58974   2.105   1.044   0.199 -0.0109  0.6777 -0.7687
19178SOL    HW158975   2.059   1.126   0.178  0.3477  0.9906 -0.3581
19178SOL    HW258976   2.049   0.975   0.163 -0.7154  1.0653 -0.4447
19179SOL     OW58977   4.129   1.979   5.608 -0.2508 -0.3825 -0.0164
19179SOL    HW158978   4.165   2.062   5.640  1.1742 -1.0823  0.2716
19179SOL    HW258979   4.120   1.924   5.686  0.1432 -0.9718 -0.3757
19180SOL     OW58980   1.604   0.882   5.348 -0.3505  0.1020  0.1649
19180SOL    HW158981   1.678   0.936   5.324 -1.0125  0.5448 -0.9733
19180SOL    HW258982   1.551   0.937   5.405 -1.0415  0.7173 -1.0197
19181SOL     OW58983   5.495   0.945   3.383 -0.5049  0.1161 -0.2816
19181SOL    HW158984   5.498   0.913   3.293  1.1449  0.9930 -0.5754
19181SOL    HW258985   5.574   0.999   3.392 -0.4409 -0.2393  1.7929
19182SOL     OW58986   6.756   1.456   5.363  0.4728  0.2163  0.0611
19182SOL    HW158987   6.722   1.510   5.292 -2.1061 -0.8304  0.3561
19182SOL    HW258988   6.806   1.387   5.320 -0.0269  0.2921 -0.6501
19183SOL     OW58989   3.849   7.075   1.531  0.1755 -0.4397 -0.2765
19183SOL    HW158990   3.796   7.016   1.478  0.3477 -1.5846  0.7978
19183SOL    HW258991   3.792   7.102   1.603  0.2470  0.3484 -0.5061
19184SOL     OW58992   5.725   0.706   5.779  0.0211  0.4199 -0.4713
19184SOL    HW158993   5.731   0.645   5.853 -0.0910 -0.1270 -0.9111
19184SOL    HW258994   5.633   0.705   5.754 -0.1093  1.2527 -0.0918
19185SOL     OW58995   0.605   6.729   5.700  0.0518 -0.0862 -0.5837
19185SOL    HW158996   0.610   6.767   5.787  1.1097 -1.1803 -0.1403
19185SOL    HW258997   0.640   6.797   5.642 -0.2242  0.4705 -0.1017
19186SOL     OW58998   1.293   0.714   2.489 -0.1373  0.6298 -0.3879
19186SOL    HW158999   1.260   0.720   2.400  1.2443 -0.8948 -1.0444
19186SOL    HW259000   1.375   0.665   2.482  0.3369  1.0189  1.6378
19187SOL     OW59001   2.054   6.141   4.474  0.0567  0.0439 -0.1591
19187SOL    HW159002   2.075   6.205   4.542  1.7637 -0.7156  0.0881
19187SOL    HW259003   1.971   6.102   4.502  0.3277  0.3160  1.0678
19188SOL     OW59004   3.326   4.188   1.734  0.6308 -0.6568  0.0423
19188SOL    HW159005   3.257   4.231   1.684  2.5404 -0.7255 -2.9203
19188SOL    HW259006   3.369   4.258   1.783  2.5277  0.7429 -3.2814
19189SOL     OW59007   6.479   4.914   0.930 -0.2040  0.6004  0.4589
19189SOL    HW159008   6.412   4.940   0.993 -1.5508 -0.1689 -0.6033
19189SOL    HW259009   6.495   4.822   0.949 -0.0427  0.5687  0.1711
19190SOL     OW59010   1.117   6.363  12.129  0.5456 -0.0644  0.4299
19190SOL    HW159011   1.145   6.274  12.107  1.0312  0.3306 -0.5859
19190SOL    HW259012   1.034   6.375  12.082  0.0628 -0.2398  1.2005
19191SOL     OW59013   6.231   2.911   2.359 -0.2287  0.2350  0.0789
19191SOL    HW159014   6.269   2.936   2.275 -1.1733  0.9144 -0.1530
19191SOL    HW259015   6.307   2.899   2.417  0.3753  0.8399 -0.5712
19192SOL     OW59016   4.293   7.252   2.616 -0.4328 -0.2148  0.2188
19192SOL    HW159017   4.334   7.292   2.693  0.7122  1.0665 -0.9928
19192SOL    HW259018   4.367   7.232   2.558 -1.3750  0.3227 -1.2157
19193SOL     OW59019   3.338   6.113   0.554  0.2055  0.2632 -0.0316
19193SOL    HW159020   3.409   6.059   0.519 -1.0339 -1.2613 -0.2981
19193SOL    HW259021   3.258   6.070   0.524 -0.8557  1.4827  0.9310
19194SOL     OW59022   6.289   3.834   0.526  0.3245  0.3979  1.1634
19194SOL    HW159023   6.264   3.816   0.617  0.1557 -2.0991  0.6798
19194SOL    HW259024   6.212   3.812   0.475  1.1741 -0.4932  0.2277
19195SOL     OW59025   3.909   2.372  11.246  0.3292 -0.2116  0.1843
19195SOL    HW159026   3.922   2.290  11.199 -0.5938 -1.4671  1.9962
19195SOL    HW259027   3.818   2.370  11.273  0.1239  1.7332 -0.2695
19196SOL     OW59028   4.595   6.663   6.845 -0.2608  0.6305  0.3234
19196SOL    HW159029   4.571   6.691   6.756 -1.6660  1.0633  0.8048
19196SOL    HW259030   4.662   6.596   6.832 -2.8754 -1.9199 -1.2758
19197SOL     OW59031   5.864   7.000   7.918  0.3575 -0.0215 -0.0786
19197SOL    HW159032   5.933   6.963   7.863  0.7854 -0.3732  0.6715
19197SOL    HW259033   5.786   6.951   7.894  0.3587  0.3648 -0.9221
19198SOL     OW59034   5.747   5.545   4.805 -0.2788  0.2767  0.4142
19198SOL    HW159035   5.843   5.544   4.806 -0.2669  0.7938  0.3288
19198SOL    HW259036   5.725   5.623   4.753 -0.7369  1.0242  1.6796
19199SOL     OW59037   0.646   0.345  10.401 -0.5576 -0.0036  0.5294
19199SOL    HW159038   0.608   0.262  10.430  1.1706 -0.8233  0.5239
19199SOL    HW259039   0.712   0.366  10.468 -1.3322  1.6650  0.8222
19200SOL     OW59040   5.355   7.423   9.727  0.1400  0.3063 -0.1314
19200SOL    HW159041   5.323   7.372   9.652 -0.5629 -1.3211  1.2043
19200SOL    HW259042   5.344   7.514   9.700 -0.4170 -0.2206 -1.8581
19201SOL     OW59043   3.128   2.365  10.585  0.3980 -0.0743  0.6141
19201SOL    HW159044   3.103   2.294  10.645  0.5206  0.6774  1.5792
19201SOL    HW259045   3.197   2.327  10.530 -1.4299 -1.5737 -0.7958
19202SOL     OW59046   2.964   6.060   5.543  0.3448 -0.2089  0.4975
19202SOL    HW159047   3.050   6.100   5.551  0.1951  0.5322 -1.1562
19202SOL    HW259048   2.909   6.109   5.604  0.4672  1.3116 -0.5587
19203SOL     OW59049   2.676   6.993   9.719 -0.3610 -0.0903 -0.3155
19203SOL    HW159050   2.757   7.026   9.681 -0.2865 -0.8812 -0.8811
19203SOL    HW259051   2.666   7.041   9.801 -1.2079  2.6415 -1.8939
19204SOL     OW59052   0.543   4.479  10.844 -0.2423 -0.2006 -0.2632
19204SOL    HW159053   0.504   4.433  10.919 -0.1767  1.3729  0.7827
19204SOL    HW259054   0.616   4.529  10.881  1.4708 -1.4027 -1.8355
19205SOL     OW59055   7.946   7.797   9.129 -0.5324 -0.6918  0.0789
19205SOL    HW159056   7.954   7.817   9.036  1.1569  3.2571  0.8500
19205SOL    HW259057   7.861   7.753   9.137 -1.9225  1.0608 -3.0553
19206SOL     OW59058   4.453   6.647   3.215  0.0169 -0.1433 -0.0355
19206SOL    HW159059   4.521   6.580   3.216  0.3731  0.2246  0.7144
19206SOL    HW259060   4.424   6.654   3.306 -0.4960  0.2416 -0.2203
19207SOL     OW59061   3.088   2.404   1.886  0.2798 -0.2238  0.5865
19207SOL    HW159062   3.012   2.393   1.829  0.7736  0.2336 -0.1820
19207SOL    HW259063   3.128   2.486   1.857  1.1700 -0.5530  0.8525
19208SOL     OW59064   5.193   7.377   7.461  0.6650 -0.0093 -0.4683
19208SOL    HW159065   5.140   7.449   7.495  1.8926  0.0835  1.4396
19208SOL    HW259066   5.252   7.418   7.398  2.3853  1.0738  1.6734
19209SOL     OW59067   0.020   1.190   8.647 -0.1742 -0.5649  0.0120
19209SOL    HW159068  -0.055   1.212   8.592  0.7112  2.0127 -0.2868
19209SOL    HW259069   0.002   1.232   8.731 -0.0793 -1.8326  0.6891
19210SOL     OW59070   3.645   7.775   0.226  0.2220 -0.7069  0.0608
19210SOL    HW159071   3.702   7.852   0.219  0.0351 -0.6465 -0.9312
19210SOL    HW259072   3.635   7.745   0.136 -3.4072  0.8132 -0.2095
19211SOL     OW59073   1.397   0.711   5.205 -0.1111  0.3100  0.1804
19211SOL    HW159074   1.391   0.744   5.115  1.7769 -0.5329 -0.3166
19211SOL    HW259075   1.445   0.779   5.252  1.5746 -0.5491 -0.2308
19212SOL     OW59076   7.350   6.144   7.911 -0.2127  0.8537  0.0966
19212SOL    HW159077   7.443   6.128   7.895 -0.3893 -0.7214  0.4107
19212SOL    HW259078   7.317   6.180   7.828  0.8094  2.1894  0.2427
19213SOL     OW59079   3.871   3.461   1.250  0.0643 -0.1932  0.4580
19213SOL    HW159080   3.956   3.493   1.220 -0.4384  0.8937  0.1481
19213SOL    HW259081   3.861   3.500   1.337 -0.2358 -0.0882  0.3773
19214SOL     OW59082   1.682   1.190   4.495 -0.2488 -0.5395 -0.6291
19214SOL    HW159083   1.755   1.248   4.516 -1.3416  0.9603 -0.7912
19214SOL    HW259084   1.671   1.199   4.400 -0.7565 -0.6031 -0.5784
19215SOL     OW59085   1.096   6.679   6.401  0.0501 -0.2723  0.2822
19215SOL    HW159086   1.059   6.592   6.389 -0.4725 -0.2556  1.5720
19215SOL    HW259087   1.191   6.665   6.404  0.1044 -0.5015 -1.6287
19216SOL     OW59088   2.637   1.532   8.827 -0.2362 -0.1870  0.6477
19216SOL    HW159089   2.674   1.536   8.916  2.4750 -1.1164 -0.3156
19216SOL    HW259090   2.703   1.574   8.772 -1.0557 -1.1104 -1.1377
19217SOL     OW59091   5.374   1.655   9.068 -0.2411 -0.4523  0.3374
19217SOL    HW159092   5.304   1.591   9.052  0.7642 -1.1903 -1.4127
19217SOL    HW259093   5.358   1.724   9.004 -0.0367 -0.0439  0.7259
19218SOL     OW59094   5.994   6.145  10.576 -0.5405 -0.2390  0.1205
19218SOL    HW159095   6.036   6.060  10.567  0.7241  0.2743  0.8519
19218SOL    HW259096   6.004   6.186  10.490 -0.5299 -0.5511 -0.0287
19219SOL     OW59097   6.928   1.174   4.592 -0.0637 -0.3626 -0.0862
19219SOL    HW159098   6.847   1.217   4.567 -0.4864 -1.5818 -0.8954
19219SOL    HW259099   6.940   1.104   4.528  1.1165 -0.8208  0.5871
19220SOL     OW59100   6.312   5.057  10.944 -0.8083  0.8688  0.2199
19220SOL    HW159101   6.224   5.021  10.956 -1.4668 -0.9156 -6.1945
19220SOL    HW259102   6.303   5.119  10.871  3.1455  0.8230 -0.5434
19221SOL     OW59103   7.712   2.343   5.587  0.3546 -0.0844  0.5770
19221SOL    HW159104   7.686   2.251   5.591 -0.5067  0.1524  0.6331
19221SOL    HW259105   7.674   2.374   5.505  0.2091  0.3493  0.8090
19222SOL     OW59106   4.583   3.175   7.678 -0.0690 -0.0743  0.2881
19222SOL    HW159107   4.632   3.240   7.627 -0.0306 -1.9703 -2.2954
19222SOL    HW259108   4.620   3.091   7.651 -1.3559 -1.2875  2.1127
19223SOL     OW59109   6.677   7.902   0.174  0.4918  0.1117 -0.4086
19223SOL    HW159110   6.593   7.857   0.180  0.3774  0.3211 -0.4083
19223SOL    HW259111   6.740   7.841   0.210  0.3443 -0.0624 -0.4448
19224SOL     OW59112   6.367   1.757  10.273 -0.3828 -0.3643  0.1439
19224SOL    HW159113   6.410   1.678  10.240 -0.0707  0.1624 -0.7567
19224SOL    HW259114   6.438   1.812  10.303 -0.7202 -1.4980  3.4179
19225SOL     OW59115   2.294   0.122   2.032  0.5989 -0.8626 -0.0082
19225SOL    HW159116   2.200   0.135   2.048  0.9955  2.3664  0.5008
19225SOL    HW259117   2.301   0.110   1.938 -0.2400  0.3821 -0.2531
19226SOL     OW59118   0.754   0.492   1.931 -0.4730 -0.1535 -0.1867
19226SOL    HW159119   0.842   0.470   1.901  1.1220  1.2696  2.9382
19226SOL    HW259120   0.722   0.556   1.867  1.1652  0.0297 -0.8786
19227SOL     OW59121   4.137   1.023   4.478  0.2607  0.3775 -0.2019
19227SOL    HW159122   4.123   1.005   4.386 -0.9676 -0.5548  0.1346
19227SOL    HW259123   4.050   1.015   4.518  0.7781  0.6421  1.0509
19228SOL     OW59124   2.420   2.743   2.075 -0.0566  0.2961 -1.0004
19228SOL    HW159125   2.405   2.701   1.990 -1.9035  0.8024 -0.9808
19228SOL    HW259126   2.362   2.696   2.135 -1.6557  2.3466 -0.8438
19229SOL     OW59127   1.710   7.445   9.704 -0.5705 -0.2425 -0.2772
19229SOL    HW159128   1.700   7.511   9.635  0.1548 -0.0133 -0.1653
19229SOL    HW259129   1.624   7.403   9.708 -0.6750 -0.1554 -1.2110
19230SOL     OW59130   1.648   5.664  10.502 -0.2746  0.2449  0.6710
19230SOL    HW159131   1.737   5.699  10.513  1.0789 -2.3668 -0.8118
19230SOL    HW259132   1.600   5.734  10.458  1.4570  1.2560  0.2566
19231SOL     OW59133   2.220   5.491   3.275  0.5950  0.0355 -0.0117
19231SOL    HW159134   2.174   5.540   3.343  0.8861  1.3417 -0.7148
19231SOL    HW259135   2.197   5.400   3.291 -0.3591  0.4396  1.0583
19232SOL     OW59136   6.874   1.785   4.866 -0.7000  0.4946  0.3191
19232SOL    HW159137   6.890   1.850   4.797  0.4897 -0.3565 -0.2613
19232SOL    HW259138   6.807   1.727   4.830  1.1591 -1.0110 -0.9766
19233SOL     OW59139   4.660   7.040   3.501  0.1989  0.3554  0.0271
19233SOL    HW159140   4.702   7.122   3.525  0.5495  0.8452 -2.0965
19233SOL    HW259141   4.710   6.972   3.547 -0.5167  1.3317  2.3488
19234SOL     OW59142   3.975   4.500  12.356 -0.1179 -0.4080 -0.2167
19234SOL    HW159143   3.912   4.450  12.408  1.4954 -0.8690  1.3811
19234SOL    HW259144   3.961   4.591  12.385 -0.9647 -0.3080 -0.8917
19235SOL     OW59145   7.748   5.056   8.404  0.2512 -0.5044 -0.5299
19235SOL    HW159146   7.835   5.017   8.392 -0.0111 -0.9862 -0.9351
19235SOL    HW259147   7.745   5.079   8.496  0.3479 -1.6621 -0.2131
19236SOL     OW59148   3.337   0.883   5.731  0.1737 -0.5220 -0.2257
19236SOL    HW159149   3.365   0.974   5.740  0.0400 -0.3593 -1.2967
19236SOL    HW259150   3.412   0.838   5.692  0.5016 -1.0449  0.9512
19237SOL     OW59151   0.109   7.890   1.673  0.2943  0.0107  0.1076
19237SOL    HW159152   0.089   7.983   1.683  0.5470  0.1963 -0.9447
19237SOL    HW259153   0.127   7.880   1.580 -1.7040 -1.4797 -0.1919
19238SOL     OW59154   4.596   5.306   9.047 -0.3185  0.2006  0.1008
19238SOL    HW159155   4.566   5.215   9.054  2.1038 -0.6920 -0.1415
19238SOL    HW259156   4.533   5.347   8.988 -1.6410 -1.2294  0.4481
19239SOL     OW59157   7.570   4.872  12.113  0.0984 -0.3437  0.1318
19239SOL    HW159158   7.602   4.911  12.032  1.3186  0.8359  1.1202
19239SOL    HW259159   7.510   4.938  12.149  2.1022  0.7228  1.7676
19240SOL     OW59160   4.159   6.415   8.304  0.0388  0.2790 -0.1573
19240SOL    HW159161   4.228   6.350   8.319 -0.5030 -0.1536  0.4995
19240SOL    HW259162   4.087   6.388   8.361 -1.0130  0.2134 -1.4469
19241SOL     OW59163   7.185   5.598   0.678  0.5260 -0.0927  0.5174
19241SOL    HW159164   7.140   5.680   0.657  0.7013 -0.4601 -1.4764
19241SOL    HW259165   7.147   5.571   0.762 -0.5126  1.3331  0.5419
19242SOL     OW59166   1.478   4.856   6.426  0.2796 -0.0767 -0.0417
19242SOL    HW159167   1.427   4.887   6.501 -0.4281 -2.5641  0.6104
19242SOL    HW259168   1.544   4.799   6.465  0.1374 -1.1087 -1.2531
19243SOL     OW59169   5.316   7.615   3.777  0.3901  0.4806  0.0054
19243SOL    HW159170   5.375   7.599   3.851  0.6875  3.8941  0.6764
19243SOL    HW259171   5.229   7.596   3.812  0.7930 -2.4567 -0.3256
19244SOL     OW59172   7.152   3.993   7.728  0.0515 -0.0318  0.0501
19244SOL    HW159173   7.071   4.022   7.770 -0.1056 -0.4074  0.0066
19244SOL    HW259174   7.135   4.003   7.634 -0.1444 -0.6328  0.0195
19245SOL     OW59175   6.858   3.301   6.716 -0.5256 -0.2127  0.4168
19245SOL    HW159176   6.938   3.286   6.665 -1.5355  0.1135 -1.3328
19245SOL    HW259177   6.836   3.215   6.751  0.6689 -0.2779  1.0799
19246SOL     OW59178   3.182   7.188   1.878  0.2448  0.0046  0.0809
19246SOL    HW159179   3.098   7.233   1.884  1.0244  1.3939  1.2851
19246SOL    HW259180   3.177   7.137   1.797 -2.0375 -0.6026  0.5491
19247SOL     OW59181   3.954   4.277   2.781 -0.1430 -0.5506  0.0513
19247SOL    HW159182   3.994   4.335   2.717  0.1726 -0.9796 -0.1461
19247SOL    HW259183   4.017   4.205   2.791 -0.8157 -1.1901 -0.1932
19248SOL     OW59184   1.897   0.748  11.149  0.0420  0.6049 -0.4124
19248SOL    HW159185   1.861   0.661  11.136  0.7239  0.5789 -2.5682
19248SOL    HW259186   1.917   0.779  11.060 -0.4236  3.0537  0.2589
19249SOL     OW59187   2.951   1.240   0.853  0.0664  0.3150  0.0938
19249SOL    HW159188   2.923   1.263   0.764  0.1709 -0.3248 -0.1045
19249SOL    HW259189   2.872   1.252   0.906  0.0689  0.9439 -0.0388
19250SOL     OW59190   0.223   3.195   9.063 -0.2915  0.0917 -0.3833
19250SOL    HW159191   0.288   3.142   9.109 -0.5019 -0.6414 -0.9096
19250SOL    HW259192   0.275   3.260   9.016  0.0796 -0.5292 -0.8546
19251SOL     OW59193   5.130   5.886  12.017  0.0045  0.2065  0.1298
19251SOL    HW159194   5.176   5.849  11.941 -0.3071 -0.1857  0.1305
19251SOL    HW259195   5.196   5.887  12.086 -0.0724 -0.6524  0.2196
19252SOL     OW59196   6.740   1.615   6.241  0.5530 -0.8002 -0.5758
19252SOL    HW159197   6.661   1.641   6.288  0.7115 -1.5344  0.1198
19252SOL    HW259198   6.719   1.628   6.148 -0.3987 -1.0369 -0.3952
19253SOL     OW59199   7.541   1.949  10.930  0.4675  0.1680  0.2444
19253SOL    HW159200   7.579   1.863  10.947 -1.1179 -0.7866 -0.8484
19253SOL    HW259201   7.614   2.010  10.942  1.1859 -1.0628  3.0484
19254SOL     OW59202   1.756   6.901   5.854 -0.5125 -0.4412  0.3430
19254SOL    HW159203   1.783   6.882   5.764 -0.1930  0.2538  0.2878
19254SOL    HW259204   1.662   6.921   5.846 -0.5934 -0.8503  0.2377
19255SOL     OW59205   3.399   7.037   7.848  0.0629 -0.4394  0.3380
19255SOL    HW159206   3.363   6.977   7.782 -1.5575  0.5768  0.2365
19255SOL    HW259207   3.323   7.086   7.879  1.3932  2.0492 -0.0778
19256SOL     OW59208   7.319   0.606  11.428 -0.1010  0.5295 -0.7289
19256SOL    HW159209   7.277   0.521  11.443  0.1273  0.2733 -1.5132
19256SOL    HW259210   7.375   0.618  11.505 -1.5669  0.8691  0.3268
19257SOL     OW59211   5.960   5.013   1.049  0.0231 -0.2751 -0.2604
19257SOL    HW159212   5.884   4.980   1.098  0.6618 -2.4527 -0.6185
19257SOL    HW259213   5.951   4.974   0.962 -0.1085  2.0505 -1.3748
19258SOL     OW59214   4.750   2.275  11.332  0.4235  0.2171  0.5657
19258SOL    HW159215   4.732   2.321  11.250  1.7171 -0.4363 -0.1090
19258SOL    HW259216   4.698   2.195  11.326 -0.9175  1.0002  1.2275
19259SOL     OW59217   2.869   1.238   8.881 -0.6021  0.0997  0.3354
19259SOL    HW159218   2.896   1.272   8.795  0.1992 -0.6698  0.2668
19259SOL    HW259219   2.775   1.224   8.872 -0.7513  1.2130  0.0023
19260SOL     OW59220   3.265   1.425   7.527  0.6924 -0.1752  1.1110
19260SOL    HW159221   3.259   1.520   7.513  1.1736 -0.4499 -1.4168
19260SOL    HW259222   3.175   1.398   7.546  0.2069  0.5341 -0.1093
19261SOL     OW59223   1.291   3.126   6.573  0.1018  0.0365 -0.1530
19261SOL    HW159224   1.233   3.201   6.564  1.0245  0.7643 -0.2042
19261SOL    HW259225   1.375   3.155   6.537  0.3887 -1.1300 -0.4791
19262SOL     OW59226   6.224   6.943   7.985 -0.2804  0.1547 -0.1195
19262SOL    HW159227   6.203   6.912   7.896 -1.2083  0.7172 -0.1036
19262SOL    HW259228   6.178   6.882   8.043 -1.7111  1.2141 -0.0811
19263SOL     OW59229   3.738   2.837   5.710 -0.6942 -0.4954 -0.2496
19263SOL    HW159230   3.735   2.930   5.734 -1.5224 -0.0054 -2.0983
19263SOL    HW259231   3.743   2.791   5.794  0.0319  1.2157  0.6912
19264SOL     OW59232   3.419   1.816   8.612 -0.3742 -0.5148 -0.0562
19264SOL    HW159233   3.400   1.843   8.702  0.9819 -0.2120  0.1714
19264SOL    HW259234   3.515   1.813   8.608 -0.2290  2.6311 -2.4039
19265SOL     OW59235   1.232   1.133   4.191  0.1211  0.2272  0.0493
19265SOL    HW159236   1.205   1.051   4.150 -2.1216  1.0306 -0.1949
19265SOL    HW259237   1.252   1.108   4.282  0.0015 -0.6544 -0.1543
19266SOL     OW59238   3.209   1.157   0.296 -0.1264 -0.2591  0.3870
19266SOL    HW159239   3.179   1.131   0.383 -1.1652 -0.7118 -0.0913
19266SOL    HW259240   3.170   1.093   0.237  0.8943 -0.1995 -0.3833
19267SOL     OW59241   4.316   6.116   1.018 -0.2290  0.1455  0.0769
19267SOL    HW159242   4.294   6.049   1.082 -1.7452  0.2759 -0.2847
19267SOL    HW259243   4.311   6.071   0.933  0.8889  0.1970 -0.0403
19268SOL     OW59244   7.241   1.711   0.393  0.7300 -0.1314 -0.3041
19268SOL    HW159245   7.252   1.774   0.322 -2.5770 -1.6983 -2.4282
19268SOL    HW259246   7.284   1.632   0.362  0.0167 -0.5747 -0.1745
19269SOL     OW59247   7.045   3.235   3.493  0.2447 -0.1184 -0.4155
19269SOL    HW159248   6.953   3.216   3.472  0.5601 -0.8045 -1.2713
19269SOL    HW259249   7.092   3.156   3.464  1.2409  0.6972 -1.0994
19270SOL     OW59250   2.142   4.426   1.425  0.3380  0.0593  0.1126
19270SOL    HW159251   2.098   4.342   1.407 -1.0283  0.4889  1.2733
19270SOL    HW259252   2.124   4.479   1.347 -0.0357 -0.2382 -0.0099
19271SOL     OW59253   7.846   7.791   8.600  0.4388 -0.8711 -0.1839
19271SOL    HW159254   7.753   7.780   8.579  0.4441 -0.4368 -0.4477
19271SOL    HW259255   7.867   7.880   8.571  0.5962 -0.4528  1.1479
19272SOL     OW59256   7.187   7.037  11.452 -0.4788 -0.0338 -0.8059
19272SOL    HW159257   7.110   7.078  11.492  1.1141  0.7234  1.6549
19272SOL    HW259258   7.181   6.945  11.477  0.2332  0.3376  0.8336
19273SOL     OW59259   7.292   7.472   2.321 -0.7587  0.3297 -0.8794
19273SOL    HW159260   7.247   7.408   2.376 -0.6080 -0.4575 -1.6428
19273SOL    HW259261   7.262   7.452   2.232  0.7841  0.0321 -1.3629
19274SOL     OW59262   0.597   2.019   0.416 -0.2527 -0.1548  0.2337
19274SOL    HW159263   0.614   1.925   0.421  0.9412  0.0102 -0.1954
19274SOL    HW259264   0.521   2.027   0.359  0.4247 -0.8146 -0.7988
19275SOL     OW59265   2.584   6.677  10.592  0.1939  0.1981  0.1840
19275SOL    HW159266   2.625   6.689  10.677 -0.7899  0.7148  0.5943
19275SOL    HW259267   2.532   6.597  10.602  1.3608 -0.6782 -0.4549
19276SOL     OW59268   6.887   7.311   3.133  0.1514  0.0040  0.0292
19276SOL    HW159269   6.970   7.360   3.130 -0.6681  1.5444  1.1204
19276SOL    HW259270   6.903   7.233   3.079  1.7914  1.0641 -1.1137
19277SOL     OW59271   3.474   2.536   6.389  0.0329  0.1914 -0.2379
19277SOL    HW159272   3.525   2.468   6.432 -0.6096 -0.2881 -0.2221
19277SOL    HW259273   3.386   2.500   6.383 -0.1762  0.7723 -0.7912
19278SOL     OW59274   5.981   7.342   2.645  0.0820  0.0625 -0.2929
19278SOL    HW159275   6.015   7.252   2.650  1.0168  0.3847 -0.6997
19278SOL    HW259276   6.015   7.385   2.724  1.9316  0.8014 -1.4216
19279SOL     OW59277   6.711   7.374   1.859  0.6281 -0.1879  0.2393
19279SOL    HW159278   6.663   7.399   1.780 -0.7336 -2.0092  0.4163
19279SOL    HW259279   6.644   7.341   1.918  1.8645 -0.8008  1.3486
19280SOL     OW59280   2.550   7.900   3.472 -0.0933  0.2798 -0.5016
19280SOL    HW159281   2.639   7.890   3.439  0.6758 -0.1553  1.5268
19280SOL    HW259282   2.527   7.814   3.506 -1.8148  0.0481 -2.0823
19281SOL     OW59283   2.561   2.479  11.153 -0.2294 -0.1216  0.3227
19281SOL    HW159284   2.540   2.564  11.191  0.2371  0.4429 -0.6340
19281SOL    HW259285   2.657   2.472  11.161 -0.1078  0.0577 -0.8066
19282SOL     OW59286   5.700   5.620   3.722 -0.0844  0.2334  0.4461
19282SOL    HW159287   5.638   5.557   3.685  0.1534 -0.7734  1.7023
19282SOL    HW259288   5.776   5.617   3.664 -0.5009  0.1785 -0.1049
19283SOL     OW59289   4.802   2.356  11.077  0.0771 -0.5091 -0.1237
19283SOL    HW159290   4.882   2.307  11.056  0.6935 -0.0131  0.9726
19283SOL    HW259291   4.779   2.400  10.996  0.6149 -1.0848 -0.5985
19284SOL     OW59292   1.150   0.336  11.596  0.1269 -0.2094  0.0721
19284SOL    HW159293   1.060   0.362  11.611 -0.0683 -0.8598  0.0713
19284SOL    HW259294   1.193   0.414  11.561 -0.6190 -0.1123 -0.6451
19285SOL     OW59295   7.319   1.682   4.053 -0.0023 -0.4351 -0.4240
19285SOL    HW159296   7.230   1.682   4.017  0.5436 -0.8793 -1.8427
19285SOL    HW259297   7.328   1.596   4.095 -0.2448 -0.3828 -0.2636
19286SOL     OW59298   4.406   2.919   4.833  0.0361 -0.2738 -0.1589
19286SOL    HW159299   4.467   2.993   4.838  0.4613 -0.5942 -0.5190
19286SOL    HW259300   4.374   2.908   4.923  1.2666 -0.7297  0.2427
19287SOL     OW59301   0.046   1.013   8.329  0.0145  0.0606 -0.4391
19287SOL    HW159302   0.079   1.044   8.413 -0.8477 -0.7003  0.1985
19287SOL    HW259303   0.070   1.082   8.267  1.6846  0.1044  0.2050
19288SOL     OW59304   7.741   5.379  10.904 -0.3047 -0.6127 -0.0599
19288SOL    HW159305   7.821   5.430  10.895 -0.2410 -0.9253 -1.4316
19288SOL    HW259306   7.694   5.393  10.822 -3.0864  1.9225  1.7332
19289SOL     OW59307   3.259   2.898   8.826 -0.1335  0.0549  0.3075
19289SOL    HW159308   3.282   2.829   8.888  0.8622 -0.8124 -0.9944
19289SOL    HW259309   3.262   2.857   8.740 -0.7984  1.4035 -0.4020
19290SOL     OW59310   7.939   5.720   9.819  0.2889  0.1825 -0.5134
19290SOL    HW159311   7.985   5.799   9.789  0.0236  0.7231  0.4841
19290SOL    HW259312   8.005   5.651   9.813  0.4878  0.4366 -1.5215
19291SOL     OW59313   7.317   5.206   3.307 -0.1050  0.6776  0.6791
19291SOL    HW159314   7.337   5.118   3.277  0.1888 -0.1304  3.0202
19291SOL    HW259315   7.364   5.215   3.390  0.4304  3.3077  0.1906
19292SOL     OW59316   3.995   4.044   5.799  0.1058 -0.0924  0.3034
19292SOL    HW159317   3.970   3.952   5.810  0.9657 -0.2174  1.4779
19292SOL    HW259318   4.022   4.072   5.887  1.4221  0.7945 -0.3428
19293SOL     OW59319   3.055   2.293   1.287  0.3039  0.4334 -0.0074
19293SOL    HW159320   2.991   2.276   1.356 -0.4809  2.5842 -0.1100
19293SOL    HW259321   3.045   2.387   1.268  2.0245  0.3723 -1.5181
19294SOL     OW59322   4.049   5.783  12.295  0.0042 -0.2607 -0.8431
19294SOL    HW159323   4.086   5.703  12.332 -0.4177 -0.2109 -0.3016
19294SOL    HW259324   4.126   5.837  12.276  0.2457 -0.3121 -0.0793
19295SOL     OW59325   0.169   7.250   1.336 -0.2464  0.4236 -0.0077
19295SOL    HW159326   0.101   7.276   1.399  1.1214  2.6595  0.6428
19295SOL    HW259327   0.153   7.304   1.259  0.4154  0.5115 -0.0889
19296SOL     OW59328   0.137   1.792   0.471  0.1832 -0.3498 -0.2209
19296SOL    HW159329   0.207   1.773   0.409 -0.0546  0.4767 -0.7691
19296SOL    HW259330   0.172   1.863   0.525 -0.6404  0.8902 -1.2675
19297SOL     OW59331   3.006   2.826   2.035  0.7177 -0.2674 -0.4195
19297SOL    HW159332   2.917   2.829   2.070  0.7175 -1.4510 -0.2770
19297SOL    HW259333   2.994   2.830   1.940  0.3639 -2.1158 -0.4981
19298SOL     OW59334   4.146   6.093   1.768 -0.3871 -0.1792  0.3791
19298SOL    HW159335   4.208   6.159   1.799 -0.9672  0.9174 -0.6950
19298SOL    HW259336   4.128   6.039   1.845  2.0924 -0.7199  0.6527
19299SOL     OW59337   0.770   0.435   6.765  0.3928  0.1832 -0.1451
19299SOL    HW159338   0.804   0.357   6.722  0.1399 -0.8013  1.3504
19299SOL    HW259339   0.715   0.477   6.700  1.2591 -0.3750 -1.2749
19300SOL     OW59340   6.299   6.915   8.710  0.0012  0.2426  0.3149
19300SOL    HW159341   6.339   6.987   8.759  1.1513  1.0701 -1.7067
19300SOL    HW259342   6.369   6.884   8.652 -1.6607  0.3460 -1.8668
19301SOL     OW59343   0.184   0.680  10.647 -0.0395 -0.0039  0.0465
19301SOL    HW159344   0.250   0.745  10.623  0.5514 -0.4212  0.5013
19301SOL    HW259345   0.227   0.595  10.633 -0.6057 -0.2899 -0.0029
19302SOL     OW59346   7.279   2.645   8.713  0.0158 -0.2190 -0.6996
19302SOL    HW159347   7.347   2.577   8.719 -0.2779 -0.5094 -0.6383
19302SOL    HW259348   7.270   2.661   8.619 -0.7574 -1.1295 -0.7961
19303SOL     OW59349   3.259   3.932   4.631  0.7905 -0.0867 -0.0817
19303SOL    HW159350   3.202   3.894   4.698  1.0099 -1.1923 -0.4908
19303SOL    HW259351   3.330   3.868   4.622  1.9444  1.1233  0.2106
19304SOL     OW59352   7.680   1.263   9.438  0.4101  0.6441 -0.1938
19304SOL    HW159353   7.621   1.337   9.423 -0.0320  0.2503 -0.4654
19304SOL    HW259354   7.671   1.243   9.531 -0.8315 -0.1806 -0.4705
19305SOL     OW59355   1.866   4.345   2.309  0.5597  0.1339  0.5357
19305SOL    HW159356   1.952   4.360   2.348  1.1598  1.3265 -1.1129
19305SOL    HW259357   1.882   4.345   2.214 -1.1171 -0.5901  0.2058
19306SOL     OW59358   6.920   4.136  10.713 -0.0770  0.5387 -0.6076
19306SOL    HW159359   6.860   4.101  10.647 -2.2732  4.5241 -1.0609
19306SOL    HW259360   6.981   4.190  10.663 -0.0687  1.4621  0.3694
19307SOL     OW59361   6.286   0.619   6.026  0.6661  0.2456  0.2310
19307SOL    HW159362   6.198   0.591   6.002  0.3958  1.6975 -0.5979
19307SOL    HW259363   6.290   0.605   6.121 -0.2056 -0.4849  0.1759
19308SOL     OW59364   7.358   3.872  11.579  0.6361  0.1358 -0.0292
19308SOL    HW159365   7.442   3.901  11.542  0.8246 -1.4974 -1.0133
19308SOL    HW259366   7.315   3.825  11.507 -0.8891  0.4676  0.6258
19309SOL     OW59367   3.216   0.281   2.408 -0.1713  0.0579 -0.0488
19309SOL    HW159368   3.212   0.341   2.334 -0.2537  0.3337  0.1773
19309SOL    HW259369   3.281   0.216   2.382  0.3803  0.5915 -0.0499
19310SOL     OW59370   2.289   3.827   5.073 -0.0878 -0.7002  0.0673
19310SOL    HW159371   2.288   3.811   5.168  0.8260 -0.8668  0.0575
19310SOL    HW259372   2.198   3.813   5.046 -0.6121  0.4556  1.0963
19311SOL     OW59373   6.112   7.725  12.312  0.3968 -0.5759  0.4364
19311SOL    HW159374   6.100   7.711  12.218  1.0324 -1.1091  0.4302
19311SOL    HW259375   6.164   7.805  12.317 -2.0352  1.1394  0.4368
19312SOL     OW59376   0.252   5.450   1.911  0.3834  0.8847 -0.0516
19312SOL    HW159377   0.339   5.468   1.874  1.2542 -1.1367  0.8266
19312SOL    HW259378   0.251   5.496   1.995  0.7173  0.7474  0.0305
19313SOL     OW59379   1.223   7.020   7.669 -0.0477 -0.2380  0.3070
19313SOL    HW159380   1.167   6.945   7.689 -0.5382  0.0615  0.0714
19313SOL    HW259381   1.222   7.073   7.749 -0.2916 -0.1105  0.2174
19314SOL     OW59382   6.601   0.946   2.590 -0.2306 -0.7419  0.0718
19314SOL    HW159383   6.676   0.901   2.552  0.4045  0.4785 -0.1575
19314SOL    HW259384   6.636   1.030   2.621 -1.1129 -0.9439  1.7036
19315SOL     OW59385   5.959   0.015  10.849 -0.0134 -0.6545 -0.2494
19315SOL    HW159386   5.937  -0.050  10.781  0.7604  0.1526 -1.3051
19315SOL    HW259387   5.904   0.090  10.829  0.4485 -0.2928 -0.1698
19316SOL     OW59388   3.666   6.444   4.948 -0.0706 -0.1444 -0.3769
19316SOL    HW159389   3.642   6.357   4.978 -0.6908  0.0415 -0.3123
19316SOL    HW259390   3.624   6.503   5.010  1.0909  0.1976  0.1225
19317SOL     OW59391   7.280   5.645   6.568  0.0508  0.0796  0.6471
19317SOL    HW159392   7.334   5.629   6.646  2.3443  1.9159 -0.4495
19317SOL    HW259393   7.286   5.739   6.554 -4.0760  0.5475  0.7880
19318SOL     OW59394   6.971   1.929  10.625  0.2972  0.5076 -0.1030
19318SOL    HW159395   6.924   1.944  10.706  0.7073 -2.2719  0.7610
19318SOL    HW259396   7.048   1.878  10.651  0.7456  0.0351 -2.1702
19319SOL     OW59397   7.354   5.916   1.141 -0.2061  0.5464 -0.3306
19319SOL    HW159398   7.431   5.966   1.114 -0.7668  0.9192 -1.3116
19319SOL    HW259399   7.323   5.875   1.060  0.2321 -1.4112  0.4500
19320SOL     OW59400   7.235   0.247  11.173  0.6151  0.4263 -0.4364
19320SOL    HW159401   7.214   0.309  11.104 -1.5639 -0.4405 -0.6512
19320SOL    HW259402   7.167   0.261  11.239 -0.9306 -2.6286 -1.1707
19321SOL     OW59403   3.404   6.106   4.198  0.7455 -0.4786  0.4639
19321SOL    HW159404   3.497   6.095   4.218  0.7284  0.5975  1.1938
19321SOL    HW259405   3.359   6.079   4.278  0.4291 -0.9458  0.1311
19322SOL     OW59406   6.884   0.963  10.003  0.0517  0.1925 -0.0656
19322SOL    HW159407   6.804   0.912  10.006 -0.2257  0.6280 -0.0250
19322SOL    HW259408   6.954   0.898  10.008 -0.2960 -0.1878 -0.1041
19323SOL     OW59409   3.859   1.807  11.675  0.0869  0.0320  0.2450
19323SOL    HW159410   3.789   1.748  11.649 -0.1184  0.3721  0.0177
19323SOL    HW259411   3.921   1.752  11.723  0.0433 -0.4271 -0.2181
19324SOL     OW59412   7.271   2.960   5.064 -0.3083  0.4981  0.3424
19324SOL    HW159413   7.178   2.971   5.083 -0.7090  0.5516 -1.4798
19324SOL    HW259414   7.292   2.875   5.102 -1.7025 -0.5835 -1.1354
19325SOL     OW59415   7.811   7.736  11.043 -0.0009  0.0038  0.5101
19325SOL    HW159416   7.815   7.757  10.950  1.7784  0.8358  0.7422
19325SOL    HW259417   7.730   7.776  11.073  0.6742  1.9661 -0.1708
19326SOL     OW59418   7.742   6.114   1.264  0.0768  0.5887 -0.2947
19326SOL    HW159419   7.697   6.065   1.195 -0.8402 -1.1673  1.4475
19326SOL    HW259420   7.829   6.132   1.228 -0.6629  0.5560 -2.2196
19327SOL     OW59421   4.022   7.358   5.795 -0.3143 -0.5530 -0.4987
19327SOL    HW159422   3.969   7.368   5.875  0.0277 -0.9732 -0.2151
19327SOL    HW259423   4.079   7.283   5.813 -0.0733 -0.5086 -1.0530
19328SOL     OW59424   2.906   1.807   0.958  0.0262  0.3128  0.2304
19328SOL    HW159425   2.896   1.879   0.897  0.6154 -0.0313 -0.2797
19328SOL    HW259426   2.912   1.849   1.044 -0.4846  0.8141  0.0286
19329SOL     OW59427   2.664   3.613  11.446 -0.6449 -0.2221  0.0114
19329SOL    HW159428   2.673   3.554  11.371  0.2920  0.7909 -0.7043
19329SOL    HW259429   2.710   3.568  11.517  1.8959  0.5064 -1.0623
19330SOL     OW59430   3.201   2.658   5.653 -0.5010  0.0068 -0.1396
19330SOL    HW159431   3.236   2.698   5.733  0.3435  0.0795 -0.5445
19330SOL    HW259432   3.111   2.635   5.676 -0.8888  1.7669  0.2502
19331SOL     OW59433   5.885   2.919   6.279  0.2482 -0.0816 -0.1996
19331SOL    HW159434   5.915   2.921   6.369  0.6318  0.4291 -0.3320
19331SOL    HW259435   5.964   2.939   6.227  0.3279 -1.6471 -0.7239
19332SOL     OW59436   2.200   3.659  12.059  0.3032  0.1185  0.2022
19332SOL    HW159437   2.135   3.615  12.115  1.2301  0.2433  1.4315
19332SOL    HW259438   2.220   3.596  11.990 -0.1874 -0.4197  0.5434
19333SOL     OW59439   6.213   3.814   1.593  0.1413 -0.7607  0.2284
19333SOL    HW159440   6.239   3.900   1.626 -0.2720 -0.9303  1.0345
19333SOL    HW259441   6.117   3.818   1.590  0.1364 -1.0743 -0.0449
19334SOL     OW59442   0.476   4.543   6.787 -0.2150 -0.2498 -0.5218
19334SOL    HW159443   0.468   4.633   6.819  1.5316  0.1608 -1.0758
19334SOL    HW259444   0.485   4.553   6.692 -1.5746 -1.1492 -0.7651
19335SOL     OW59445   7.419   6.696   8.940 -0.1698  0.0343  0.0431
19335SOL    HW159446   7.328   6.669   8.930 -0.1347 -0.0731  0.0113
19335SOL    HW259447   7.422   6.785   8.905 -0.5012  0.4641  1.0482
19336SOL     OW59448   6.720   2.440   7.400  0.0864  0.0206  0.2056
19336SOL    HW159449   6.646   2.435   7.460  0.2132 -0.1102  0.3534
19336SOL    HW259450   6.691   2.392   7.322  0.0389 -0.0890  0.2898
19337SOL     OW59451   1.106   6.623   8.838  0.7040  0.1303 -0.5288
19337SOL    HW159452   1.136   6.568   8.909 -1.5871 -0.1385  0.2938
19337SOL    HW259453   1.117   6.569   8.759 -1.4360 -1.5721  0.2428
19338SOL     OW59454   2.779   3.543   6.343  0.6181  0.0484 -0.1343
19338SOL    HW159455   2.764   3.525   6.436  0.3866 -0.3327 -0.2406
19338SOL    HW259456   2.700   3.587   6.314  1.2354  1.3901  0.1518
19339SOL     OW59457   7.787   1.956   4.124  0.0907 -0.3458 -0.0623
19339SOL    HW159458   7.792   1.894   4.051  1.3959 -0.8187  0.3879
19339SOL    HW259459   7.797   2.042   4.083 -0.0382 -0.5495 -0.5289
19340SOL     OW59460   1.716   0.445   1.804 -0.3260  0.1350  0.2068
19340SOL    HW159461   1.632   0.449   1.760 -0.7678  1.7114  1.1129
19340SOL    HW259462   1.711   0.367   1.859 -0.3207 -1.0175 -1.3658
19341SOL     OW59463   7.437   3.751  11.844 -0.4362  0.6478 -0.0445
19341SOL    HW159464   7.428   3.655  11.837 -1.1202  0.7512 -0.7320
19341SOL    HW259465   7.393   3.784  11.766  1.5802  1.4555 -0.9095
19342SOL     OW59466   0.603   2.164   6.854 -0.0628 -0.0345  0.2741
19342SOL    HW159467   0.595   2.251   6.814 -0.4541  0.2023  0.8639
19342SOL    HW259468   0.585   2.104   6.782  1.3148  0.3355 -0.4130
19343SOL     OW59469   2.098   7.126   1.720  0.3613  0.2847  0.3458
19343SOL    HW159470   2.165   7.175   1.672  0.4449 -0.0808  0.0820
19343SOL    HW259471   2.022   7.125   1.661  0.0840  0.7844  0.6865
19344SOL     OW59472   1.234   6.139  12.013 -0.3133 -0.2106 -0.1826
19344SOL    HW159473   1.206   6.049  12.032  0.3533 -0.3127  0.3593
19344SOL    HW259474   1.327   6.140  12.035 -0.8899  1.3845  2.6644
19345SOL     OW59475   1.756   2.925   7.333  0.3463 -0.4197 -0.1583
19345SOL    HW159476   1.679   2.877   7.363  0.3335 -1.0830 -1.2115
19345SOL    HW259477   1.815   2.857   7.301 -0.4452  0.3163 -3.5246
19346SOL     OW59478   6.667   6.339   2.882 -0.4897  0.5487  0.0868
19346SOL    HW159479   6.645   6.410   2.821 -1.5065 -0.0513 -0.2710
19346SOL    HW259480   6.607   6.268   2.858  0.2362 -0.2878  0.7081
19347SOL     OW59481   2.645   0.658  11.445 -0.2580  0.0708 -0.4919
19347SOL    HW159482   2.600   0.573  11.441 -1.2894  0.6654 -2.4935
19347SOL    HW259483   2.575   0.721  11.459  0.5698  0.6203  1.7416
19348SOL     OW59484   1.731   2.617   0.870 -0.5408  0.2801  0.0992
19348SOL    HW159485   1.805   2.671   0.842  1.0870 -2.4061 -1.1301
19348SOL    HW259486   1.723   2.550   0.802 -1.9945 -1.4621  1.8802
19349SOL     OW59487   3.055   0.978   5.447  0.3847 -0.1740  0.0480
19349SOL    HW159488   2.986   0.986   5.513 -2.4009 -2.2727 -2.3291
19349SOL    HW259489   3.025   1.033   5.375  2.0532  0.1246 -0.4528
19350SOL     OW59490   6.036   7.205  12.034 -0.0480  0.0372  0.9687
19350SOL    HW159491   6.085   7.213  11.953 -0.3757  0.0224  0.7676
19350SOL    HW259492   6.073   7.272  12.092  0.8761 -0.6349  1.1656
19351SOL     OW59493   6.692   1.250   0.250 -0.8025 -0.5719 -0.0859
19351SOL    HW159494   6.771   1.234   0.302 -0.8917 -0.7888 -0.0153
19351SOL    HW259495   6.706   1.336   0.210 -1.1417  0.0208  1.0415
19352SOL     OW59496   5.597   7.622  11.531  0.9522 -0.5195  0.1169
19352SOL    HW159497   5.690   7.639  11.546  1.1622 -1.8925  0.4499
19352SOL    HW259498   5.554   7.705  11.554  1.9961 -0.1724  0.8956
19353SOL     OW59499   6.222   7.335  10.477 -0.2361 -0.4595  0.3465
19353SOL    HW159500   6.153   7.349  10.542  0.5645  0.0949  1.0993
19353SOL    HW259501   6.289   7.284  10.523  1.7533  2.5077  1.0021
19354SOL     OW59502   3.190   7.181   7.928 -0.1006  0.3350 -0.0527
19354SOL    HW159503   3.163   7.215   8.013 -0.9368  1.8978 -0.9065
19354SOL    HW259504   3.108   7.160   7.883  0.3321 -0.6173 -0.4488
19355SOL     OW59505   6.405   3.434   3.527 -0.4819 -0.2717 -0.2771
19355SOL    HW159506   6.483   3.460   3.575 -0.2745 -2.3081  0.6167
19355SOL    HW259507   6.340   3.415   3.596 -1.0237 -0.7168 -0.8988
19356SOL     OW59508   0.431   3.233  10.015  0.4192  0.1977  0.0337
19356SOL    HW159509   0.394   3.300  10.072 -0.2474  0.0876 -0.2584
19356SOL    HW259510   0.513   3.208  10.057 -0.0160  0.1838  0.8941
19357SOL     OW59511   0.248   1.007   9.059  0.5851 -0.6332  0.0147
19357SOL    HW159512   0.307   1.078   9.085  0.3645 -0.5698  0.3572
19357SOL    HW259513   0.263   0.996   8.966  0.0299  0.4316 -0.2284
19358SOL     OW59514   0.023   2.341   0.322  0.8700 -0.0340 -0.0218
19358SOL    HW159515   0.032   2.436   0.331  1.2984 -0.0976  0.2419
19358SOL    HW259516   0.018   2.308   0.412 -1.0792 -0.1089 -0.1081
19359SOL     OW59517   0.467   3.358   9.052  0.1471 -0.1331 -0.4533
19359SOL    HW159518   0.490   3.389   9.140 -3.2603 -1.9234  1.2731
19359SOL    HW259519   0.461   3.438   9.000  1.7066  1.0416  1.0659
19360SOL     OW59520   1.815   4.398   1.388  0.2805 -0.1315  1.1627
19360SOL    HW159521   1.807   4.344   1.309  0.9902  0.4289  0.6987
19360SOL    HW259522   1.790   4.485   1.360 -1.5765 -0.3096  2.0793
19361SOL     OW59523   6.707   1.812   0.119 -0.3100  1.0937 -0.1976
19361SOL    HW159524   6.665   1.894   0.146 -0.1891  0.9213  0.5260
19361SOL    HW259525   6.795   1.817   0.156 -0.2643  0.6893 -0.2515
19362SOL     OW59526   0.042   4.024   1.481  0.1779 -0.7425  0.2657
19362SOL    HW159527   0.112   4.056   1.538  1.7450 -4.0151  0.4398
19362SOL    HW259528  -0.029   4.001   1.540  0.3560 -0.6801  0.5029
19363SOL     OW59529   0.717   3.172   1.490  0.1032  0.0417 -0.0664
19363SOL    HW159530   0.654   3.176   1.417  0.6056 -1.2416 -0.5983
19363SOL    HW259531   0.685   3.100   1.545 -0.0194  0.7140  0.7674
19364SOL     OW59532   2.041   6.200   9.598 -0.0773  0.2826  0.1290
19364SOL    HW159533   2.066   6.288   9.569 -0.6970  0.2094 -0.6252
19364SOL    HW259534   2.056   6.144   9.522  2.3938 -0.6868  1.2018
19365SOL     OW59535   3.653   4.480   2.989 -0.2716 -0.0746  0.4317
19365SOL    HW159536   3.585   4.455   2.925 -0.0893 -3.3943  1.3615
19365SOL    HW259537   3.606   4.484   3.072  0.6158 -2.5920  1.1143
19366SOL     OW59538   6.727   7.243   5.841 -0.2687  0.3795 -0.1920
19366SOL    HW159539   6.701   7.334   5.828 -0.1769  0.2847 -1.0687
19366SOL    HW259540   6.771   7.218   5.760  0.7693 -0.0875  0.4912
19367SOL     OW59541   1.535   4.882   8.425 -0.1374  0.1422 -0.3767
19367SOL    HW159542   1.586   4.962   8.434 -0.2453  0.2671 -0.8417
19367SOL    HW259543   1.506   4.882   8.333 -0.1702 -0.4070 -0.3696
19368SOL     OW59544   6.193   4.347   9.556  0.3588  0.1551 -0.4532
19368SOL    HW159545   6.191   4.421   9.496 -0.2375 -0.9900 -1.9007
19368SOL    HW259546   6.248   4.282   9.512 -1.8003 -1.5399 -0.8430
19369SOL     OW59547   7.699   0.538   4.122  0.5115  0.3621 -0.0756
19369SOL    HW159548   7.728   0.561   4.033  0.4412  1.5058  0.1774
19369SOL    HW259549   7.617   0.586   4.133  0.4502  0.1084  0.5486
19370SOL     OW59550   5.745   1.265   0.035 -0.7504 -0.9150  0.2656
19370SOL    HW159551   5.816   1.323   0.062 -0.8123 -0.4052 -0.6381
19370SOL    HW259552   5.749   1.192   0.097  1.4798 -1.6104 -0.6064
19371SOL     OW59553   0.234   3.821   9.793  0.2093 -0.3602  0.0603
19371SOL    HW159554   0.224   3.801   9.886  2.0264  3.0553  1.1747
19371SOL    HW259555   0.300   3.759   9.762  0.5109 -0.7324  1.3821
19372SOL     OW59556   0.606   3.976   6.303 -0.1137 -0.0699 -0.3167
19372SOL    HW159557   0.602   3.956   6.209 -0.3732 -0.8554 -0.1501
19372SOL    HW259558   0.586   3.892   6.346 -1.6467  0.6308  0.4273
19373SOL     OW59559   3.774   7.751   5.234  0.0137  0.2506  0.1630
19373SOL    HW159560   3.793   7.832   5.186  0.5185  0.2660  0.3868
19373SOL    HW259561   3.756   7.780   5.323 -2.8197  0.4330 -0.3694
19374SOL     OW59562   4.831   0.712  10.128 -0.1992  0.5205 -0.4326
19374SOL    HW159563   4.832   0.687  10.036 -1.6666 -1.8709  0.0856
19374SOL    HW259564   4.888   0.647  10.171  0.2081  1.3971  0.3790
19375SOL     OW59565   1.538   4.630  12.222  0.1436  0.0543 -0.2395
19375SOL    HW159566   1.510   4.539  12.225  1.2430 -0.2850 -0.0471
19375SOL    HW259567   1.624   4.628  12.182  0.0433  1.0515 -0.5406
19376SOL     OW59568   2.777   6.403   5.637  0.1493  0.0713  0.1436
19376SOL    HW159569   2.831   6.346   5.692  0.4104  0.1941  0.0157
19376SOL    HW259570   2.838   6.442   5.576 -0.0765  0.2655  0.0405
19377SOL     OW59571   7.694   7.047   5.903 -0.5228  0.5932 -0.6979
19377SOL    HW159572   7.639   6.979   5.864  0.1822  1.1468 -2.8530
19377SOL    HW259573   7.640   7.085   5.972 -1.5592 -1.0268 -0.5568
19378SOL     OW59574   1.748   7.192   6.145 -0.4158 -0.6890  0.2859
19378SOL    HW159575   1.840   7.202   6.169 -0.4696  2.1310 -0.2841
19378SOL    HW259576   1.746   7.213   6.051 -1.8100  1.0553  0.6465
19379SOL     OW59577   3.421   1.964   6.101 -0.2821 -0.1765  0.5591
19379SOL    HW159578   3.459   1.978   6.188  0.9315  0.9126 -0.1134
19379SOL    HW259579   3.409   2.052   6.065  0.1254 -0.6315 -0.7532
19380SOL     OW59580   7.424   1.516   2.979 -0.5234 -0.0423  0.2134
19380SOL    HW159581   7.379   1.531   3.062 -0.2518 -0.9814  0.5548
19380SOL    HW259582   7.393   1.585   2.921 -1.1143  0.3171  0.9419
19381SOL     OW59583   7.204   6.017  12.074  0.2409 -0.3860 -0.4670
19381SOL    HW159584   7.173   6.014  12.165 -1.1514  1.2157 -0.8386
19381SOL    HW259585   7.298   6.036  12.082 -0.4056  3.1240  0.7111
19382SOL     OW59586   3.708   6.882  10.741 -0.0476  0.1783 -0.1291
19382SOL    HW159587   3.715   6.977  10.747 -1.2136  0.3867 -1.3622
19382SOL    HW259588   3.731   6.862  10.650  0.9666 -0.8195  0.3267
19383SOL     OW59589   7.930   0.191   6.628 -0.3823 -0.1150  0.2959
19383SOL    HW159590   7.839   0.209   6.606 -0.4275  0.1779  0.6950
19383SOL    HW259591   7.938   0.219   6.720 -0.3027 -1.6117  0.7774
19384SOL     OW59592   6.520   2.043   5.806 -0.5069  0.1425  0.3669
19384SOL    HW159593   6.613   2.048   5.783 -0.1672 -1.0820  1.3976
19384SOL    HW259594   6.475   2.081   5.730  0.8827  2.0675  0.4411
19385SOL     OW59595   1.673   4.589   9.433  0.0738  0.0356 -0.0064
19385SOL    HW159596   1.706   4.501   9.418  0.6538  0.0585  1.0700
19385SOL    HW259597   1.692   4.636   9.352 -0.6017 -0.9178 -0.7451
19386SOL     OW59598   6.872   6.805   3.875 -0.2205 -0.4550 -0.2656
19386SOL    HW159599   6.899   6.770   3.791 -0.1628  0.8497 -0.8093
19386SOL    HW259600   6.919   6.888   3.883 -1.2555  0.0886  0.4317
19387SOL     OW59601   3.349   3.604   4.905 -0.2496  0.1686  0.4805
19387SOL    HW159602   3.395   3.683   4.932  0.9501 -0.2533 -0.2745
19387SOL    HW259603   3.257   3.630   4.899 -0.2499  0.8623  2.6354
19388SOL     OW59604   5.139   3.430  11.416 -0.5301 -0.1443 -0.1013
19388SOL    HW159605   5.086   3.506  11.390  1.9831  1.2945 -1.3794
19388SOL    HW259606   5.143   3.436  11.511 -1.9090  0.1951 -0.0338
19389SOL     OW59607   1.231   5.648   6.375 -0.2464 -0.3784 -0.1963
19389SOL    HW159608   1.147   5.617   6.339 -0.8752  1.2261 -0.2309
19389SOL    HW259609   1.211   5.672   6.465 -0.3455  1.7746 -0.7312
19390SOL     OW59610   2.663   3.059   4.610 -0.5193  0.2544 -0.0277
19390SOL    HW159611   2.620   3.021   4.534 -0.7543 -0.8291  0.6212
19390SOL    HW259612   2.749   3.017   4.613 -0.8164 -0.3402  0.7482
19391SOL     OW59613   5.082   0.681   4.346  0.2699  0.5167 -0.5062
19391SOL    HW159614   5.036   0.634   4.276 -1.0419  2.0228 -0.7222
19391SOL    HW259615   5.014   0.699   4.411  1.1877  0.3262  0.5362
19392SOL     OW59616   4.923   4.092   5.508 -0.4728  0.4726 -0.2810
19392SOL    HW159617   4.972   4.167   5.543 -0.9880  0.5137  0.3585
19392SOL    HW259618   4.879   4.054   5.584 -0.3442 -0.3941 -0.6204
19393SOL     OW59619   1.097   3.691   0.996  0.1713 -0.7150 -0.1921
19393SOL    HW159620   1.135   3.614   1.038  2.4554  1.1557  1.4049
19393SOL    HW259621   1.140   3.696   0.911  2.2398  0.3208  0.8509
19394SOL     OW59622   4.397   1.942   7.201  0.5552 -0.0211 -0.4023
19394SOL    HW159623   4.436   1.871   7.150  0.6861  0.4466 -0.9666
19394SOL    HW259624   4.331   1.981   7.142 -1.1341 -1.0903  0.6879
19395SOL     OW59625   1.198   5.874  12.111 -0.1873 -0.4783  0.0942
19395SOL    HW159626   1.208   5.795  12.057  0.8364 -0.4937  0.2894
19395SOL    HW259627   1.256   5.859  12.186  1.1501  1.0608 -0.5787
19396SOL     OW59628   2.150   5.169   2.201 -0.2250  0.0999 -0.2086
19396SOL    HW159629   2.164   5.189   2.108 -0.8036  0.5913 -0.1983
19396SOL    HW259630   2.221   5.215   2.246  1.4048 -1.9295 -0.5441
19397SOL     OW59631   3.924   7.545  11.787  0.4542  0.5167  0.0979
19397SOL    HW159632   3.962   7.483  11.725  1.8536 -0.2279  1.6126
19397SOL    HW259633   3.995   7.564  11.848 -0.2795  2.7825  0.3353
19398SOL     OW59634   3.652   5.840   5.496  0.1627 -0.1364  0.0946
19398SOL    HW159635   3.594   5.797   5.558 -1.1780  2.4723  0.7393
19398SOL    HW259636   3.721   5.879   5.550  0.4131  0.0175 -0.3280
19399SOL     OW59637   0.673   7.129   5.739 -0.1803  0.5234  0.0935
19399SOL    HW159638   0.588   7.172   5.746  0.7846  2.6755 -0.6923
19399SOL    HW259639   0.727   7.174   5.804  1.3999  1.9692 -2.1051
19400SOL     OW59640   0.922   4.023   3.305  0.4301  0.3411 -0.0815
19400SOL    HW159641   0.980   4.080   3.255  0.5840 -0.5117 -0.9197
19400SOL    HW259642   0.945   3.935   3.277 -0.7911 -0.0574  0.0767
19401SOL     OW59643   1.275   7.525   9.675 -0.0727  0.2651 -0.1406
19401SOL    HW159644   1.331   7.575   9.616  0.3703  1.0701  0.9266
19401SOL    HW259645   1.335   7.471   9.725 -0.4415 -0.3903 -0.4013
19402SOL     OW59646   2.671   3.923  10.886 -0.5164  0.4360  0.0463
19402SOL    HW159647   2.663   3.945  10.793  0.8324 -0.0072 -0.1986
19402SOL    HW259648   2.623   3.992  10.932  1.2292  2.3302 -0.8280
19403SOL     OW59649   2.178   5.626  11.136  0.0457 -0.4809 -0.6241
19403SOL    HW159650   2.110   5.650  11.072  0.4395  0.9701 -0.5324
19403SOL    HW259651   2.161   5.683  11.211 -1.0433 -2.8512  1.0709
19404SOL     OW59652   2.974   4.214   9.937 -0.0669  0.4128 -0.1677
19404SOL    HW159653   3.036   4.145   9.962  0.8807  0.5940 -1.8839
19404SOL    HW259654   3.026   4.277   9.888 -1.0506  2.0663  0.8095
19405SOL     OW59655   4.291   6.950  11.173 -0.7030  0.2046 -0.0923
19405SOL    HW159656   4.235   7.024  11.198 -1.0434  0.1416 -0.6599
19405SOL    HW259657   4.305   6.961  11.079 -0.0131  0.0454 -0.0147
19406SOL     OW59658   3.926   1.982   1.532  0.3291  0.3192 -0.4152
19406SOL    HW159659   3.971   2.064   1.550 -0.4738  0.8084 -0.5891
19406SOL    HW259660   3.956   1.956   1.445  0.1473  0.7401 -0.6080
19407SOL     OW59661   6.545   0.285  11.203 -0.3034 -0.3367  0.3263
19407SOL    HW159662   6.536   0.343  11.128  0.6477 -0.4195  0.1286
19407SOL    HW259663   6.482   0.215  11.188  1.0265 -1.2656 -1.2814
19408SOL     OW59664   3.744   1.718   5.440 -0.0109 -0.8013  0.2378
19408SOL    HW159665   3.731   1.661   5.516 -1.8471  0.3444  0.8548
19408SOL    HW259666   3.662   1.767   5.433  0.9784  0.7577 -1.1174
19409SOL     OW59667   0.921   2.776   2.717  0.2185  0.0141 -0.4455
19409SOL    HW159668   0.865   2.701   2.738  1.3906 -1.2551 -1.6076
19409SOL    HW259669   1.006   2.753   2.754  0.8583  0.2945 -1.7028
19410SOL     OW59670   6.885   1.485   0.900 -0.4865  0.1862  0.0685
19410SOL    HW159671   6.929   1.570   0.894 -0.3264  0.2566  1.7504
19410SOL    HW259672   6.852   1.469   0.812  1.1673  1.0742 -0.7636
19411SOL     OW59673   3.310   2.770   2.519 -0.2197 -0.7216 -0.2172
19411SOL    HW159674   3.229   2.790   2.472 -0.5618 -0.3048  0.5263
19411SOL    HW259675   3.360   2.851   2.517  1.1818 -1.5661 -2.5445
19412SOL     OW59676   5.057   7.003   3.711 -0.1314  0.5150  0.0534
19412SOL    HW159677   5.091   6.949   3.783 -0.3102  1.1947  0.6575
19412SOL    HW259678   4.979   6.956   3.682 -0.0648  0.2386  0.3061
19413SOL     OW59679   4.592   1.753   4.696  0.4029  0.4109  0.3477
19413SOL    HW159680   4.577   1.775   4.604 -0.7494  0.1560  0.4509
19413SOL    HW259681   4.545   1.821   4.745  0.0672 -0.0756  0.7197
19414SOL     OW59682   4.386   0.217   0.010 -0.4686 -0.6828  0.2542
19414SOL    HW159683   4.325   0.148  -0.017 -0.1941 -0.2194 -1.7212
19414SOL    HW259684   4.419   0.253  -0.072  1.7856 -0.2947  1.2626
19415SOL     OW59685   3.617   0.101  12.271 -0.0907  0.0364  0.1145
19415SOL    HW159686   3.568   0.172  12.230  4.6704  3.5666 -0.3548
19415SOL    HW259687   3.624   0.034  12.203 -2.1892  0.3929 -0.5224
19416SOL     OW59688   1.464   0.062   4.896  0.5746  0.4874 -0.4260
19416SOL    HW159689   1.452   0.017   4.979 -1.3795  0.2683 -0.7900
19416SOL    HW259690   1.499  -0.006   4.837 -0.3395 -0.0109 -0.4104
19417SOL     OW59691   7.295   6.084   9.803  0.0524 -0.2137  0.3353
19417SOL    HW159692   7.202   6.107   9.799  0.6386  2.2792 -1.8783
19417SOL    HW259693   7.314   6.046   9.717  0.6736 -3.0084  1.5762
19418SOL     OW59694   4.213   7.190   7.944 -0.2802  0.2334  0.1458
19418SOL    HW159695   4.126   7.163   7.973 -0.4897  1.0766  0.3205
19418SOL    HW259696   4.271   7.119   7.972 -0.8174 -0.0139  0.6329
19419SOL     OW59697   6.984   7.787  11.816 -0.0725 -0.2652  0.0795
19419SOL    HW159698   7.061   7.732  11.797  0.5256  0.3599  0.6591
19419SOL    HW259699   7.000   7.867  11.766 -0.4468 -0.2156  0.0422
19420SOL     OW59700   6.791   3.823   9.274  0.0539  0.2858 -0.5800
19420SOL    HW159701   6.723   3.838   9.340  0.6416 -2.1753  0.7397
19420SOL    HW259702   6.744   3.793   9.197 -0.5037  0.7978 -0.4378
19421SOL     OW59703   0.942   3.896  10.138  0.0311  0.2547 -0.2709
19421SOL    HW159704   0.975   3.981  10.169 -1.6330  1.1559 -0.8745
19421SOL    HW259705   0.969   3.892  10.047  0.8464 -0.2677 -0.0141
19422SOL     OW59706   2.638   0.711   6.036  0.4580  0.2118  0.2235
19422SOL    HW159707   2.608   0.681   5.951  2.2218 -4.6991  1.0204
19422SOL    HW259708   2.557   0.730   6.084 -0.7422 -0.7863 -1.3172
19423SOL     OW59709   7.688   3.348   0.385 -0.0514  0.2872 -1.0890
19423SOL    HW159710   7.697   3.261   0.345 -0.0030  0.9278 -2.5425
19423SOL    HW259711   7.607   3.382   0.347 -0.4259  0.6297 -0.0100
19424SOL     OW59712   1.200   5.869   5.362 -0.6261 -0.1525 -0.8262
19424SOL    HW159713   1.219   5.789   5.412 -0.3202 -0.7279 -1.8371
19424SOL    HW259714   1.272   5.875   5.299 -1.1986  0.3521 -1.4429
19425SOL     OW59715   1.358   1.879   2.141  0.1551  0.0598  0.0173
19425SOL    HW159716   1.431   1.918   2.189  1.5612 -0.6262 -1.4640
19425SOL    HW259717   1.299   1.952   2.123  1.8182  1.1985 -1.0926
19426SOL     OW59718   6.108   5.488   4.066  0.2345 -0.4682 -0.4422
19426SOL    HW159719   6.060   5.503   3.985  0.2762 -2.2443 -0.8345
19426SOL    HW259720   6.040   5.488   4.134 -0.1714 -1.5925 -0.8242
19427SOL     OW59721   0.812   5.906   8.847  0.0436  0.5800  0.6972
19427SOL    HW159722   0.788   5.968   8.779  0.1876 -0.2634 -0.1445
19427SOL    HW259723   0.805   5.956   8.929  0.1584  1.6891  0.0485
19428SOL     OW59724   0.679   2.645   8.510 -0.0596  0.5145 -0.0458
19428SOL    HW159725   0.663   2.716   8.447 -1.7040 -1.0753 -1.5153
19428SOL    HW259726   0.768   2.662   8.541  0.0094  2.6043 -1.1518
19429SOL     OW59727   1.162   4.890   9.341 -0.3576  0.4489 -0.1244
19429SOL    HW159728   1.217   4.952   9.293  2.7668 -0.1468  2.3167
19429SOL    HW259729   1.098   4.945   9.386 -0.2893  1.4571 -1.2272
19430SOL     OW59730   6.261   7.489   7.393 -0.2358  0.4179 -0.4194
19430SOL    HW159731   6.287   7.423   7.329 -1.7630 -0.6123 -0.0142
19430SOL    HW259732   6.196   7.446   7.448 -0.8539  2.0866  0.2336
19431SOL     OW59733   7.147   1.502   6.668 -0.0643 -0.0926 -0.3049
19431SOL    HW159734   7.116   1.452   6.744 -0.3154  1.4953  0.6883
19431SOL    HW259735   7.072   1.554   6.641  0.5538  0.7631 -0.4391
19432SOL     OW59736   5.435   4.872   4.955 -0.6623  0.4394 -0.2096
19432SOL    HW159737   5.477   4.910   5.032 -0.9773  1.3080 -0.4567
19432SOL    HW259738   5.507   4.836   4.902 -0.3703  0.6381  0.0530
19433SOL     OW59739   7.169   2.257   9.537  0.1146  0.0995 -0.4449
19433SOL    HW159740   7.259   2.287   9.528  0.0531  1.7973  2.9735
19433SOL    HW259741   7.171   2.166   9.509  2.9972 -0.0319 -0.0836
19434SOL     OW59742   6.508   2.165   7.413 -0.1631 -0.2348 -0.0772
19434SOL    HW159743   6.555   2.176   7.330 -0.5411 -0.4522 -0.3238
19434SOL    HW259744   6.416   2.166   7.388 -0.2756 -0.4169  0.3295
19435SOL     OW59745   5.098   2.047   0.441 -0.1011 -0.5655  0.4772
19435SOL    HW159746   5.066   2.094   0.364  1.6304 -0.5510 -0.2665
19435SOL    HW259747   5.052   2.088   0.515 -0.6363  0.4521 -0.3997
19436SOL     OW59748   2.428   3.354   2.763  0.5386 -0.0502  0.1167
19436SOL    HW159749   2.351   3.297   2.766 -0.4140  1.1900  3.2448
19436SOL    HW259750   2.481   3.327   2.837  1.4354  1.2980  0.0053
19437SOL     OW59751   5.461   6.204   6.911  0.3553  0.4148  0.0826
19437SOL    HW159752   5.549   6.192   6.875  0.6258 -4.4377  1.6184
19437SOL    HW259753   5.466   6.166   6.999 -2.9774  1.1587  0.7178
19438SOL     OW59754   0.673   7.099   3.657  0.1138  0.1400  0.3886
19438SOL    HW159755   0.655   7.011   3.623 -0.9732  0.5518 -0.1775
19438SOL    HW259756   0.586   7.137   3.670  0.5118  2.0428 -1.8561
19439SOL     OW59757   4.402   0.508   8.925 -0.0124 -0.0351  0.4119
19439SOL    HW159758   4.388   0.452   9.001 -3.5210 -1.2964 -0.9855
19439SOL    HW259759   4.373   0.595   8.954 -0.4515 -0.2992  0.7727
19440SOL     OW59760   6.556   4.880   2.788 -0.0441 -0.0821  0.0309
19440SOL    HW159761   6.621   4.847   2.850 -0.5994  1.0728  1.2742
19440SOL    HW259762   6.608   4.922   2.719  0.5687  1.3508  1.3090
19441SOL     OW59763   2.113   2.280  10.762 -0.6951  0.0938  0.3809
19441SOL    HW159764   2.121   2.241  10.849 -1.9322 -0.4364  0.2735
19441SOL    HW259765   2.168   2.359  10.766 -0.6126 -0.0063  1.5831
19442SOL     OW59766   5.979   4.779   1.252  0.2383  0.0408  0.1877
19442SOL    HW159767   5.895   4.778   1.206  0.7478  2.4697 -0.9410
19442SOL    HW259768   6.040   4.740   1.189  0.5069  1.1722 -0.2619
19443SOL     OW59769   6.669   2.287   7.186  0.5540 -0.1108  0.1285
19443SOL    HW159770   6.738   2.264   7.123 -0.8809 -2.2384 -0.7843
19443SOL    HW259771   6.605   2.336   7.134  0.2575 -0.2555  0.3534
19444SOL     OW59772   2.839   3.151  10.935  0.3058  0.0966 -0.1637
19444SOL    HW159773   2.934   3.160  10.930  0.4763 -1.3352  0.0671
19444SOL    HW259774   2.810   3.148  10.844  0.5950 -0.4601 -0.2386
19445SOL     OW59775   0.518   1.280   3.770  0.1105 -0.0435 -0.6092
19445SOL    HW159776   0.498   1.234   3.852 -0.8270  0.7565 -0.3712
19445SOL    HW259777   0.521   1.373   3.795 -1.4476  0.3315 -1.7058
19446SOL     OW59778   7.519   4.217   4.952 -0.0872  0.3080  0.3602
19446SOL    HW159779   7.477   4.253   5.031  1.2846  0.7341  0.9276
19446SOL    HW259780   7.585   4.156   4.986  0.4083  0.3726 -0.4663
19447SOL     OW59781   3.205   6.684  11.781  0.0099 -0.1112  0.5106
19447SOL    HW159782   3.188   6.647  11.868 -0.9272 -1.1507 -0.0940
19447SOL    HW259783   3.119   6.712  11.750  0.2206 -0.4420 -0.3918
19448SOL     OW59784   2.806   3.396   2.785 -0.3341 -0.1659 -0.7915
19448SOL    HW159785   2.806   3.432   2.874  1.1117 -1.5286 -0.1840
19448SOL    HW259786   2.768   3.465   2.731  1.2045  1.7969  0.4797
19449SOL     OW59787   5.238   6.715   9.051 -0.0771  0.0713 -0.2248
19449SOL    HW159788   5.175   6.666   9.103 -0.0955 -0.1385 -0.4392
19449SOL    HW259789   5.293   6.647   9.011  0.6647  0.2681  0.4349
19450SOL     OW59790   1.133   5.390   4.292 -0.2390  0.4704  0.6958
19450SOL    HW159791   1.107   5.309   4.248  0.2491  0.5686  0.2234
19450SOL    HW259792   1.146   5.364   4.383  1.5390 -0.3478  0.2466
19451SOL     OW59793   7.401   3.861  11.111 -0.2308 -0.2821 -0.4290
19451SOL    HW159794   7.311   3.891  11.099 -1.1226 -1.6578  2.1120
19451SOL    HW259795   7.419   3.810  11.032 -1.3208  0.7170 -1.3749
19452SOL     OW59796   4.606   7.013  10.585  0.0148 -0.3328  0.3407
19452SOL    HW159797   4.629   6.971  10.668  0.5704 -0.7265 -0.0033
19452SOL    HW259798   4.574   7.100  10.610  0.0060 -0.5112  0.9773
19453SOL     OW59799   2.646   2.801   1.191 -0.2877  0.3924 -0.0560
19453SOL    HW159800   2.628   2.801   1.285  0.6254 -2.5206  0.2162
19453SOL    HW259801   2.742   2.807   1.186 -0.3051  0.0965 -0.7748
19454SOL     OW59802   3.212   2.480   1.081 -0.2323  0.3899  0.2691
19454SOL    HW159803   3.143   2.519   1.134 -0.1475  1.1915 -0.1891
19454SOL    HW259804   3.256   2.419   1.139 -0.9146  0.3606  0.7565
19455SOL     OW59805   6.458   4.462   4.262  0.1661  0.3736  0.0775
19455SOL    HW159806   6.544   4.426   4.240  1.1167  2.3600  0.2481
19455SOL    HW259807   6.396   4.411   4.209  1.4693 -0.8809 -0.3105
19456SOL     OW59808   5.304   4.310   4.780  0.0704  0.6053  0.2851
19456SOL    HW159809   5.327   4.359   4.859  0.0988  0.5491  0.3113
19456SOL    HW259810   5.245   4.368   4.733 -0.4300  0.3934  0.6404
19457SOL     OW59811   7.230   5.870   6.069 -0.0064 -0.0906 -0.0586
19457SOL    HW159812   7.323   5.846   6.064 -0.0134 -0.6791  1.9504
19457SOL    HW259813   7.214   5.920   5.989  2.6212  2.0487  0.6460
19458SOL     OW59814   4.740   2.414   1.794  0.4921 -0.2437  1.0322
19458SOL    HW159815   4.748   2.319   1.801 -0.9374 -0.4258  0.5318
19458SOL    HW259816   4.705   2.442   1.878 -1.3568 -0.4719  0.3701
19459SOL     OW59817   2.163   6.754   6.850 -0.0199  0.0914  0.0215
19459SOL    HW159818   2.210   6.670   6.851 -1.5572 -0.7947  0.4891
19459SOL    HW259819   2.149   6.775   6.942  0.2541  0.8209 -0.0946
19460SOL     OW59820   7.285   7.407   3.353  0.0015  0.1416 -0.4365
19460SOL    HW159821   7.212   7.426   3.295 -0.5887  1.1407  0.5989
19460SOL    HW259822   7.350   7.475   3.333 -0.1736  0.4442  0.0027
19461SOL     OW59823   4.067   5.400  11.977  0.2941  0.0198  0.8731
19461SOL    HW159824   4.157   5.381  11.953  0.8682  2.0450  1.2403
19461SOL    HW259825   4.020   5.405  11.893  1.3022  2.4074  0.3739
19462SOL     OW59826   5.023   6.871   3.445 -0.8759 -0.1563 -0.1439
19462SOL    HW159827   4.975   6.837   3.520  0.4630 -1.8817 -0.0089
19462SOL    HW259828   5.077   6.942   3.481 -1.6899  0.3511  0.1102
19463SOL     OW59829   1.688   5.975   3.464 -0.3045 -0.0870  0.1170
19463SOL    HW159830   1.608   5.987   3.515 -0.0986 -0.1308  0.4588
19463SOL    HW259831   1.682   5.886   3.430 -0.8332  0.2318 -0.6370
19464SOL     OW59832   6.421   0.445   8.058 -0.1996  0.0082  0.3744
19464SOL    HW159833   6.467   0.381   8.112  0.8784  0.4141 -0.0378
19464SOL    HW259834   6.361   0.393   8.004  0.7115 -0.6642 -0.0091
19465SOL     OW59835   7.350   1.694   4.402  0.5873 -0.1632 -0.2723
19465SOL    HW159836   7.342   1.700   4.497  1.1818 -0.0248 -0.2281
19465SOL    HW259837   7.267   1.655   4.373  0.6462 -0.7738  0.3592
19466SOL     OW59838   4.090   6.610   4.789  0.1764  0.3680 -0.1826
19466SOL    HW159839   4.045   6.590   4.872  0.3377 -0.0047 -0.1800
19466SOL    HW259840   4.183   6.600   4.810  0.1977 -0.2177 -0.5303
19467SOL     OW59841   7.132   5.160   7.688 -0.0257  0.0403  0.2873
19467SOL    HW159842   7.129   5.124   7.776  0.7865  0.6093  0.5674
19467SOL    HW259843   7.180   5.095   7.637 -1.9093 -1.0642 -0.1507
19468SOL     OW59844   0.882   6.014   5.014 -0.0252  0.2647 -0.1032
19468SOL    HW159845   0.848   6.006   5.103 -0.6610  1.1990 -0.2482
19468SOL    HW259846   0.805   6.032   4.960  0.4950  0.8512 -0.6704
19469SOL     OW59847   6.312   5.064   9.148  0.3536 -0.0350  0.3894
19469SOL    HW159848   6.228   5.069   9.194 -0.4288  0.2276 -1.0205
19469SOL    HW259849   6.374   5.106   9.209 -0.8261  1.1832  0.8180
19470SOL     OW59850   5.490   1.484  11.740 -0.4228 -0.3897  0.0109
19470SOL    HW159851   5.535   1.411  11.698 -1.4057 -0.3147 -1.2069
19470SOL    HW259852   5.450   1.533  11.668 -2.0930 -0.2117  1.0017
19471SOL     OW59853   3.451   3.046   9.147  0.1176  0.1378 -0.0043
19471SOL    HW159854   3.531   3.037   9.198 -0.3879 -3.4646  0.4454
19471SOL    HW259855   3.380   3.038   9.212 -0.6576  2.0396 -0.5425
19472SOL     OW59856   5.768   6.459   6.838  0.7757  0.3158 -0.1469
19472SOL    HW159857   5.777   6.527   6.771 -0.2803  0.0469 -0.5854
19472SOL    HW259858   5.815   6.384   6.802 -0.0859  0.0571 -0.7717
19473SOL     OW59859   6.826   0.511   8.921 -0.2464  0.2859  0.0872
19473SOL    HW159860   6.849   0.490   8.831 -1.0625  0.2621 -0.1248
19473SOL    HW259861   6.830   0.606   8.926  3.4419  0.2064  1.0460
19474SOL     OW59862   1.812   0.617   9.382 -0.1027 -0.6050 -0.5268
19474SOL    HW159863   1.789   0.529   9.352 -0.7610 -0.7718  0.4520
19474SOL    HW259864   1.818   0.610   9.477 -2.6201  0.9394 -0.1547
19475SOL     OW59865   1.729   2.288  11.940  0.2766 -0.9263 -0.1821
19475SOL    HW159866   1.771   2.253  12.019 -0.6668 -0.0373  0.7568
19475SOL    HW259867   1.640   2.251  11.943 -0.1604  0.1086 -0.1278
19476SOL     OW59868   0.618   3.171   6.639  0.0954 -0.5860 -0.4913
19476SOL    HW159869   0.632   3.247   6.695 -2.5004 -0.4455  0.1049
19476SOL    HW259870   0.700   3.122   6.644  1.3960  1.4999  0.1123
19477SOL     OW59871   0.528   7.651   7.473  0.0933  0.5410 -0.0403
19477SOL    HW159872   0.564   7.575   7.518 -0.8123  0.3236  0.3571
19477SOL    HW259873   0.477   7.615   7.401  2.0798  0.9217 -1.7009
19478SOL     OW59874   4.400   4.585   5.498 -0.0458  0.4242  0.1257
19478SOL    HW159875   4.451   4.664   5.488  0.0075  0.3335 -0.3162
19478SOL    HW259876   4.441   4.521   5.439 -0.8524  0.4458 -0.4798
19479SOL     OW59877   1.079   3.496   9.327 -0.5331  0.3133  0.0706
19479SOL    HW159878   1.025   3.445   9.267  0.2459 -1.0541  0.4734
19479SOL    HW259879   1.066   3.454   9.412  0.9696  0.0713  0.2130
19480SOL     OW59880   3.110   5.233   6.454  0.0680 -0.1383  0.5854
19480SOL    HW159881   3.160   5.278   6.522  0.9492 -0.1833 -0.0212
19480SOL    HW259882   3.152   5.148   6.446  0.4661  0.1533 -0.5555
19481SOL     OW59883   2.897   3.110   3.782  0.1086  0.1356 -0.4010
19481SOL    HW159884   2.826   3.052   3.755  0.5811  0.1107 -1.6413
19481SOL    HW259885   2.970   3.052   3.802  0.7339  0.2815 -2.1009
19482SOL     OW59886   5.239   6.516   4.714  0.0143  0.2607 -0.2594
19482SOL    HW159887   5.183   6.444   4.740 -0.6163  0.7270 -0.3112
19482SOL    HW259888   5.241   6.512   4.618  0.1458  0.1917 -0.2545
19483SOL     OW59889   7.655   7.852  10.509  0.6420 -0.2183 -0.2855
19483SOL    HW159890   7.589   7.787  10.486  0.8029 -0.8863  1.0859
19483SOL    HW259891   7.726   7.837  10.447  0.5327 -1.1215 -0.1960
19484SOL     OW59892   0.078   5.659   3.010 -0.0209 -0.0151  0.3587
19484SOL    HW159893  -0.013   5.671   3.037  0.3586 -0.4562  1.9787
19484SOL    HW259894   0.104   5.575   3.049  1.2455  0.3752  0.4187
19485SOL     OW59895   0.381   6.903   4.083  0.0121  0.4448 -0.2457
19485SOL    HW159896   0.390   6.921   3.990  0.6603 -1.9751 -0.7145
19485SOL    HW259897   0.320   6.830   4.087  0.1692  0.3707  1.2307
19486SOL     OW59898   7.185   2.373  11.964 -1.0046  0.0084 -0.0026
19486SOL    HW159899   7.189   2.400  11.872 -0.0387  0.5501  0.1825
19486SOL    HW259900   7.137   2.444  12.007  0.2586  0.7580  0.2307
19487SOL     OW59901   1.240   7.350  11.792 -0.3101 -0.0406 -0.3961
19487SOL    HW159902   1.264   7.391  11.875 -0.0209  2.3350 -1.5910
19487SOL    HW259903   1.317   7.362  11.737 -0.1337 -2.4344 -0.7892
19488SOL     OW59904   6.813   3.470   7.487  0.0030  0.1430 -0.3745
19488SOL    HW159905   6.869   3.437   7.557  0.3653  1.2664 -0.1270
19488SOL    HW259906   6.873   3.503   7.420 -0.3403 -0.7067 -1.1408
19489SOL     OW59907   6.363   0.505   1.550 -1.0580 -0.1209  0.3904
19489SOL    HW159908   6.304   0.447   1.502 -1.8231  0.7608  0.2270
19489SOL    HW259909   6.449   0.464   1.543 -1.3283 -0.5170 -0.9033
19490SOL     OW59910   1.004   0.961   8.353 -0.0035  0.0379  0.3013
19490SOL    HW159911   0.994   0.942   8.446 -0.3308  1.2184  0.5280
19490SOL    HW259912   1.020   0.876   8.312 -1.0433 -0.6402  1.2665
19491SOL     OW59913   7.043   2.838   3.102  0.5139  0.1557  0.9784
19491SOL    HW159914   7.008   2.926   3.086  1.3940  0.4005  0.2889
19491SOL    HW259915   7.107   2.851   3.173 -0.9566 -0.3402  2.4469
19492SOL     OW59916   4.794   0.416   8.596 -0.3231 -0.3483  0.3375
19492SOL    HW159917   4.779   0.453   8.683  0.2984 -0.2755  0.4169
19492SOL    HW259918   4.804   0.323   8.611 -0.9785 -0.4413  0.2455
19493SOL     OW59919   1.725   4.822   3.004  0.3814  0.2346 -0.1049
19493SOL    HW159920   1.676   4.825   2.922  0.3808 -0.4744 -0.1339
19493SOL    HW259921   1.786   4.749   2.993  0.2480  0.0114  0.6003
19494SOL     OW59922   5.778   5.985  10.974  0.7169 -0.0491  0.0135
19494SOL    HW159923   5.760   5.900  11.013  0.7761 -0.2631 -0.4117
19494SOL    HW259924   5.694   6.013  10.938  0.4131  0.6389  1.2042
19495SOL     OW59925   5.774   7.936  11.518  0.2478 -0.2972 -0.2828
19495SOL    HW159926   5.754   8.029  11.528 -0.6886 -0.6826  1.7681
19495SOL    HW259927   5.866   7.928  11.544  0.3389  0.0393 -0.4894
19496SOL     OW59928   1.763   3.458  10.658  0.2371  0.1501 -0.3833
19496SOL    HW159929   1.791   3.395  10.725  2.2746  0.6599 -0.6766
19496SOL    HW259930   1.668   3.453  10.658  0.3044 -2.9327 -0.3999
19497SOL     OW59931   4.050   5.368   4.701  0.4503  0.1284 -0.0736
19497SOL    HW159932   4.042   5.436   4.634  0.0710 -0.1598 -0.3258
19497SOL    HW259933   4.041   5.415   4.784 -0.6249  0.2858 -0.2593
19498SOL     OW59934   1.258   2.598   3.366 -0.1647  0.8974 -0.2775
19498SOL    HW159935   1.233   2.572   3.277  1.2102  1.9634 -1.0122
19498SOL    HW259936   1.177   2.633   3.404 -1.3227 -1.5491 -0.2822
19499SOL     OW59937   5.688   7.621   2.178  0.2459 -0.3077 -0.2701
19499SOL    HW159938   5.780   7.644   2.164  0.0822  0.0786 -0.7431
19499SOL    HW259939   5.687   7.581   2.265  1.2563 -2.6146 -1.2390
19500SOL     OW59940   2.503   3.772   1.904  0.0497 -0.0524  0.5646
19500SOL    HW159941   2.480   3.681   1.922 -0.4171 -0.1528 -0.5126
19500SOL    HW259942   2.599   3.774   1.910  0.1659 -0.9123 -0.6792
19501SOL     OW59943   3.704   7.216  11.733  0.2733  0.2667  0.7018
19501SOL    HW159944   3.643   7.142  11.737 -0.1163  0.6154  1.3188
19501SOL    HW259945   3.791   7.176  11.734  0.0893 -0.1349  2.3203
19502SOL     OW59946   4.156   1.935   2.516 -0.2189  0.6089  0.3314
19502SOL    HW159947   4.154   1.967   2.426  1.5547  0.2172  0.1078
19502SOL    HW259948   4.165   1.840   2.508 -0.1221  0.5603  0.9247
19503SOL     OW59949   0.783   4.154  11.616 -0.4223  0.3592 -0.4899
19503SOL    HW159950   0.767   4.170  11.709 -0.4113 -0.7087 -0.2851
19503SOL    HW259951   0.869   4.111  11.613  0.1762  1.5505 -1.1204
19504SOL     OW59952   5.892   1.014  12.124 -0.1270  0.4746  0.8288
19504SOL    HW159953   5.907   0.960  12.046  0.1591 -0.8991  1.7858
19504SOL    HW259954   5.934   1.098  12.103 -2.0920  1.0157 -1.3967
19505SOL     OW59955   1.755   3.830  10.380 -0.5998 -0.7441 -0.1483
19505SOL    HW159956   1.812   3.813  10.305  2.5587  0.7948  1.6934
19505SOL    HW259957   1.774   3.760  10.442  1.1431  0.9881  1.3932
19506SOL     OW59958   5.328   5.572   2.659 -0.0324  0.5918  0.5735
19506SOL    HW159959   5.301   5.617   2.579  0.7166 -0.4214 -0.2634
19506SOL    HW259960   5.249   5.571   2.713 -1.1218 -0.4659 -0.9588
19507SOL     OW59961   5.254   6.771   2.025  0.1467  0.3468 -0.0909
19507SOL    HW159962   5.335   6.722   2.041 -0.2952  0.1215  1.6904
19507SOL    HW259963   5.254   6.787   1.931  2.1348  0.1347 -0.1742
19508SOL     OW59964   2.955   3.816  10.839 -0.3598  0.4673  0.0632
19508SOL    HW159965   2.970   3.855  10.753 -0.1215  0.4466  0.0956
19508SOL    HW259966   2.862   3.830  10.856 -0.4486  0.3097 -0.2809
19509SOL     OW59967   2.421   7.077  11.342 -0.0548 -0.1098  0.0154
19509SOL    HW159968   2.510   7.106  11.322  0.2523 -0.2967  1.0747
19509SOL    HW259969   2.376   7.077  11.257 -0.2235  3.8481 -0.0678
19510SOL     OW59970   6.588   5.697   9.058 -0.0826  0.1544 -0.5098
19510SOL    HW159971   6.639   5.775   9.039 -0.1684  0.3990  0.2291
19510SOL    HW259972   6.498   5.720   9.036 -0.3213  0.7371  0.9417
19511SOL     OW59973   2.923   1.470   5.888 -0.2270 -0.5360  0.2715
19511SOL    HW159974   2.942   1.420   5.967 -2.2249 -3.3324 -0.8660
19511SOL    HW259975   3.006   1.473   5.841  0.9330  0.9554  2.2387
19512SOL     OW59976   2.955   7.773   2.331 -0.2772 -0.1901 -0.0471
19512SOL    HW159977   2.970   7.720   2.252 -1.7780 -1.8104  0.6832
19512SOL    HW259978   2.862   7.761   2.350  0.0230  0.2855  1.8961
19513SOL     OW59979   4.942   1.679   5.421 -0.1959  0.1964 -0.2307
19513SOL    HW159980   5.006   1.710   5.485 -0.9723 -1.7520  1.6440
19513SOL    HW259981   4.935   1.585   5.438 -4.7484  0.4856  0.9616
19514SOL     OW59982   5.552   1.144   9.572 -0.2439  0.0494  0.1672
19514SOL    HW159983   5.601   1.069   9.607 -1.6061 -0.7756  0.3478
19514SOL    HW259984   5.462   1.129   9.598 -1.3106 -0.3683 -3.2157
19515SOL     OW59985   7.217   2.530   1.369  0.4158  0.5298  0.2766
19515SOL    HW159986   7.198   2.508   1.460 -0.2234  0.2714  0.0910
19515SOL    HW259987   7.140   2.579   1.340  0.4651  0.3190 -0.2201
19516SOL     OW59988   0.162   3.034   7.183  0.0401 -0.2429  0.0723
19516SOL    HW159989   0.211   3.105   7.142 -0.2657 -0.0519  0.0402
19516SOL    HW259990   0.216   2.956   7.168 -0.0709 -0.1764 -0.6983
19517SOL     OW59991   6.800   5.980  11.501  0.3477 -1.0841  1.1539
19517SOL    HW159992   6.722   5.972  11.445  0.1459  1.9679  0.8588
19517SOL    HW259993   6.769   5.956  11.589 -0.6070 -1.0381  0.8415
19518SOL     OW59994   5.102   4.353   8.406  0.1796  0.8735  0.1511
19518SOL    HW159995   5.052   4.399   8.339  1.3967  0.8070 -0.8175
19518SOL    HW259996   5.049   4.275   8.425  0.0855  0.6181 -1.1123
19519SOL     OW59997   4.158   5.416   6.297 -0.0516  0.6184 -0.6675
19519SOL    HW159998   4.238   5.438   6.345  0.1376  0.3154 -0.8406
19519SOL    HW259999   4.089   5.415   6.364  0.3295 -0.5199 -0.2614
19520SOL     OW60000   1.382   7.818  11.778 -0.2614 -0.1133 -0.1014
19520SOL    HW160001   1.293   7.820  11.812 -0.3398  1.8325 -0.3305
19520SOL    HW260002   1.437   7.846  11.851  0.0333 -0.0665 -0.3357
19521SOL     OW60003   6.244   2.933   4.160  0.3555 -0.3149 -0.1274
19521SOL    HW160004   6.313   2.924   4.095  0.7265 -1.9084  0.4333
19521SOL    HW260005   6.273   2.879   4.234 -0.9244 -0.0588  0.6048
19522SOL     OW60006   0.263   7.955   6.828  1.3292 -0.5640 -0.2734
19522SOL    HW160007   0.282   7.976   6.920 -0.4606  0.9863 -0.1912
19522SOL    HW260008   0.285   8.034   6.780 -0.9282 -0.1094 -0.6709
19523SOL     OW60009   2.005   5.794   2.935 -0.4021 -0.4072  0.0685
19523SOL    HW160010   1.985   5.857   3.004  1.1045 -1.0411  1.1428
19523SOL    HW260011   2.048   5.847   2.867 -0.0463 -0.1046  0.5211
19524SOL     OW60012   3.507   5.485   8.254  0.4385 -0.4797  0.5277
19524SOL    HW160013   3.496   5.573   8.219  0.5751 -0.6250  0.1095
19524SOL    HW260014   3.422   5.464   8.292 -0.1725 -0.8492 -0.9679
19525SOL     OW60015   1.661   6.480   5.068 -0.1631 -0.0670 -0.3241
19525SOL    HW160016   1.690   6.391   5.046  0.2441  0.3911 -1.8004
19525SOL    HW260017   1.731   6.536   5.035 -0.6152  0.8305  0.2114
19526SOL     OW60018   4.981   5.674   8.908 -0.0908 -0.7141  0.0319
19526SOL    HW160019   4.992   5.641   8.997  1.4276  0.8329  0.4790
19526SOL    HW260020   4.901   5.727   8.912 -0.7308 -1.6681  0.1288
19527SOL     OW60021   2.715   2.625   9.220 -0.3260 -0.1610 -0.2264
19527SOL    HW160022   2.735   2.592   9.307  0.5204  0.7227 -0.0618
19527SOL    HW260023   2.794   2.672   9.194 -1.2936  1.3025 -0.6312
19528SOL     OW60024   4.277   2.204   5.728  0.1986 -0.2947  0.2257
19528SOL    HW160025   4.296   2.237   5.639 -0.7212  0.9615  0.4674
19528SOL    HW260026   4.363   2.181   5.763  0.8119  1.0352 -0.3141
19529SOL     OW60027   6.554   4.512   4.581 -0.1239  0.0830 -0.4162
19529SOL    HW160028   6.584   4.467   4.660  0.5800  1.7597  0.3252
19529SOL    HW260029   6.635   4.528   4.531 -0.5327 -0.7181 -1.3657
19530SOL     OW60030   5.292   7.165   4.513  0.0771 -0.1288 -1.0273
19530SOL    HW160031   5.269   7.105   4.584  3.6811 -0.0840  0.4066
19530SOL    HW260032   5.223   7.231   4.513 -0.6811 -0.7980  1.6864
19531SOL     OW60033   1.883   4.362  12.046 -0.2490  0.3977 -0.2032
19531SOL    HW160034   1.911   4.306  11.973  0.2700  0.5201 -0.1020
19531SOL    HW260035   1.883   4.304  12.122  1.1799  0.7271  0.0784
19532SOL     OW60036   1.550   3.714   3.789 -0.1261  0.8767 -0.1084
19532SOL    HW160037   1.619   3.674   3.842  0.5947  0.5853 -1.2169
19532SOL    HW260038   1.585   3.801   3.768  0.6816  0.1497 -2.0113
19533SOL     OW60039   2.619   6.574  11.134 -0.7704 -0.2908 -0.4669
19533SOL    HW160040   2.582   6.659  11.156  0.3062  0.9490 -3.0396
19533SOL    HW260041   2.712   6.581  11.156 -0.6271 -0.7084 -0.9145
19534SOL     OW60042   1.263   1.908   5.759  0.2198  0.2914  0.3847
19534SOL    HW160043   1.270   2.000   5.735  2.1760  0.1071  0.1379
19534SOL    HW260044   1.332   1.894   5.824 -0.7594 -0.7576  1.2499
19535SOL     OW60045   6.153   5.678  10.841  0.1952  0.8021  0.0331
19535SOL    HW160046   6.089   5.745  10.819 -0.9923  0.5852  2.5261
19535SOL    HW260047   6.230   5.728  10.869  0.1824  1.0917 -0.4329
19536SOL     OW60048   2.996   2.775   9.984  0.6085  0.1869  0.1600
19536SOL    HW160049   2.982   2.682   9.999  1.0326  0.3444  1.6662
19536SOL    HW260050   2.917   2.817  10.018 -0.1340  0.3298 -1.6238
19537SOL     OW60051   2.354   0.409   3.998  0.5894  0.2769  0.2736
19537SOL    HW160052   2.435   0.364   4.023  0.1937  0.3696  1.8406
19537SOL    HW260053   2.287   0.341   4.003  0.3001  0.5896  0.7395
19538SOL     OW60054   4.605   4.720   2.338  0.1030 -1.0059  0.1080
19538SOL    HW160055   4.677   4.659   2.328 -0.6628 -1.5797 -2.7730
19538SOL    HW260056   4.641   4.805   2.312  0.1442 -0.9663  0.2895
19539SOL     OW60057   2.576   2.086  11.689 -0.3712 -0.0682  0.5024
19539SOL    HW160058   2.499   2.108  11.742  0.4467  0.3577  1.5329
19539SOL    HW260059   2.590   1.993  11.705 -0.7789 -0.1978  0.1481
19540SOL     OW60060   6.760   3.581   6.291  0.1652 -0.1338 -0.1837
19540SOL    HW160061   6.684   3.614   6.340  0.6442 -0.9854  1.1762
19540SOL    HW260062   6.823   3.653   6.294  0.0739 -0.0657  0.1953
19541SOL     OW60063   0.923   2.740  10.505  0.0936  0.3679 -0.3179
19541SOL    HW160064   0.851   2.711  10.560 -0.2228  0.7883 -0.5100
19541SOL    HW260065   0.946   2.663  10.453 -0.7804  0.4681 -0.8656
19542SOL     OW60066   3.808   4.463   0.147  0.0580 -0.0103  0.7854
19542SOL    HW160067   3.714   4.454   0.134  0.0669  0.2870  0.4898
19542SOL    HW260068   3.817   4.506   0.232 -0.1675  2.0579 -0.1604
19543SOL     OW60069   6.124   4.118  10.548  0.0628 -0.6861 -0.5170
19543SOL    HW160070   6.123   4.045  10.486 -0.3009 -1.4762  0.3919
19543SOL    HW260071   6.031   4.136  10.564  0.1320 -1.4293  0.8482
19544SOL     OW60072   0.559   5.763   0.120  0.3585  0.2367 -0.8914
19544SOL    HW160073   0.650   5.790   0.130  0.1805  0.6980 -0.5234
19544SOL    HW260074   0.561   5.668   0.137  0.5041  0.5280  0.8243
19545SOL     OW60075   5.688   4.300   3.698 -0.5064  0.3370 -0.1138
19545SOL    HW160076   5.665   4.214   3.733  0.3352  0.1028 -0.1076
19545SOL    HW260077   5.735   4.343   3.769  0.0922  0.3495 -0.5126
19546SOL     OW60078   2.842   3.531   7.159  0.0367  0.5225  0.2113
19546SOL    HW160079   2.916   3.470   7.148 -0.2923 -0.0212  0.9312
19546SOL    HW260080   2.819   3.557   7.070 -0.5717 -1.3244 -0.2176
19547SOL     OW60081   5.569   4.828  10.096 -0.1788  0.0188 -0.1054
19547SOL    HW160082   5.575   4.873  10.180  2.2338 -0.1315 -0.1374
19547SOL    HW260083   5.574   4.898  10.031  0.1199 -0.0426 -0.1459
19548SOL     OW60084   4.912   0.837   5.976  0.3212 -0.1028  0.3001
19548SOL    HW160085   4.901   0.776   5.903 -0.7173 -0.2400  0.5588
19548SOL    HW260086   4.973   0.903   5.943  0.5653 -0.6540 -0.3754
19549SOL     OW60087   5.289   7.398   5.327  0.0941 -0.5654 -0.0231
19549SOL    HW160088   5.312   7.321   5.275  0.8115  0.2695 -0.9767
19549SOL    HW260089   5.360   7.405   5.391 -0.4209 -1.1854  0.6244
19550SOL     OW60090   4.277   1.664  10.192  0.3357 -0.0022  0.3444
19550SOL    HW160091   4.290   1.705  10.278 -1.5878  0.1399  0.5910
19550SOL    HW260092   4.215   1.720  10.147  0.0360 -0.9848 -0.4979
19551SOL     OW60093   2.025   0.832   8.017  0.3099 -0.3463  0.3839
19551SOL    HW160094   2.081   0.816   7.941  0.4663  0.6148  0.2779
19551SOL    HW260095   2.014   0.928   8.019  0.3753 -0.3414  1.6187
19552SOL     OW60096   7.294   6.469   0.107  0.1772  0.1223  0.0293
19552SOL    HW160097   7.250   6.536   0.055  0.5156  1.4899  1.4021
19552SOL    HW260098   7.368   6.440   0.054 -0.7470 -0.1668 -1.1359
19553SOL     OW60099   5.215   1.827   2.175  0.5302 -0.1074 -0.1828
19553SOL    HW160100   5.183   1.742   2.207  1.0043 -0.3364 -0.3082
19553SOL    HW260101   5.177   1.891   2.235 -0.8302 -0.2900 -0.8045
19554SOL     OW60102   7.218   1.189   9.180 -0.0184  0.3383  0.2251
19554SOL    HW160103   7.218   1.121   9.113  0.2888 -0.2879  0.8454
19554SOL    HW260104   7.129   1.222   9.181 -0.1865 -0.0979 -0.0375
19555SOL     OW60105   5.262   6.557   5.652 -0.2718  0.1559 -0.4651
19555SOL    HW160106   5.199   6.525   5.716 -0.7877 -0.0413 -1.0650
19555SOL    HW260107   5.281   6.647   5.679 -1.4083  0.4858 -0.7374
19556SOL     OW60108   7.236   0.228   0.813  0.9213  0.4838 -0.2216
19556SOL    HW160109   7.235   0.323   0.801  1.4219  0.2410 -2.6140
19556SOL    HW260110   7.158   0.210   0.865  0.6811  2.1628  0.0738
19557SOL     OW60111   3.027   3.012  12.094 -0.3688  0.2739 -0.1789
19557SOL    HW160112   2.997   2.989  12.182  1.6708  1.7137  1.0076
19557SOL    HW260113   2.964   3.077  12.063 -0.0738  1.1732  1.0464
19558SOL     OW60114   7.586   3.984   6.431  0.6223 -0.3650 -0.0239
19558SOL    HW160115   7.505   3.936   6.448  0.5824 -0.6443 -0.9346
19558SOL    HW260116   7.652   3.940   6.485  0.2534 -0.4112  0.3902
19559SOL     OW60117   4.842   6.610   5.073  0.2064  0.2114 -0.0917
19559SOL    HW160118   4.818   6.564   5.154 -0.5532 -2.0931 -1.5013
19559SOL    HW260119   4.928   6.646   5.090  0.4124 -0.9061  1.4960
19560SOL     OW60120   0.260   0.698   9.215  0.4969 -0.1433  0.6250
19560SOL    HW160121   0.312   0.772   9.186 -1.9881  1.4990  0.0414
19560SOL    HW260122   0.197   0.735   9.277 -1.5924 -1.4641 -0.5530
19561SOL     OW60123   7.701   4.429   9.186  0.3238  0.1610  0.6942
19561SOL    HW160124   7.782   4.380   9.184  1.1207  1.4191 -1.1367
19561SOL    HW260125   7.643   4.383   9.125  1.0877  1.4160 -1.0597
19562SOL     OW60126   1.167   6.541   7.851  0.1335  0.5091  0.6579
19562SOL    HW160127   1.134   6.574   7.935 -0.7419  0.9940  0.1342
19562SOL    HW260128   1.169   6.446   7.862  1.9893  0.6453  1.9272
19563SOL     OW60129   5.512   6.217   8.742 -0.0696  0.0280  0.4323
19563SOL    HW160130   5.587   6.176   8.698  0.4316 -0.0525  1.3406
19563SOL    HW260131   5.488   6.154   8.810 -1.4826 -0.3165 -0.3525
19564SOL     OW60132   7.329   3.229   8.367  0.1392  0.7400  0.1441
19564SOL    HW160133   7.420   3.207   8.387  0.2488  0.3078 -0.8104
19564SOL    HW260134   7.297   3.156   8.314 -1.3544 -0.0565  1.9849
19565SOL     OW60135   1.897   1.671   2.381  0.1845 -1.1216 -0.2619
19565SOL    HW160136   1.860   1.718   2.307 -0.2002 -1.3067 -0.1888
19565SOL    HW260137   1.974   1.627   2.345  2.4051  1.9667  0.2944
19566SOL     OW60138   6.249   3.857   5.865 -0.3085 -0.7669 -0.7440
19566SOL    HW160139   6.168   3.887   5.824 -0.1164  0.9258  0.0420
19566SOL    HW260140   6.319   3.890   5.807 -0.1405 -2.1945 -1.4063
19567SOL     OW60141   1.041   1.013   7.675 -0.1398  0.5622 -0.1227
19567SOL    HW160142   0.963   1.058   7.708 -0.6195  1.8297 -2.7479
19567SOL    HW260143   1.010   0.925   7.654 -0.2165  0.2735  1.0787
19568SOL     OW60144   1.283   1.511   8.115  0.5684 -0.0154  0.2696
19568SOL    HW160145   1.291   1.421   8.084 -1.1343  0.3565 -1.4428
19568SOL    HW260146   1.345   1.560   8.062 -0.7198  0.2599 -1.0505
19569SOL     OW60147   4.763   2.153   3.739 -0.2609 -0.4447 -0.1323
19569SOL    HW160148   4.762   2.088   3.669 -1.8207 -1.3183  0.6612
19569SOL    HW260149   4.719   2.111   3.813 -0.6023  1.2183  0.6766
19570SOL     OW60150   5.226   2.001   8.082 -0.0073  0.3309  0.3277
19570SOL    HW160151   5.232   2.026   7.990  1.6715  0.8374  0.5496
19570SOL    HW260152   5.315   2.011   8.116 -0.2170 -1.5446  1.5879
19571SOL     OW60153   7.076   7.322   6.429  0.8615 -0.1125  0.0565
19571SOL    HW160154   6.990   7.321   6.472  2.0347  2.2077  2.7851
19571SOL    HW260155   7.058   7.296   6.339 -3.0262  2.1411 -0.0371
19572SOL     OW60156   1.032   2.262   3.721  0.1055  0.1921 -0.2197
19572SOL    HW160157   0.963   2.202   3.693  0.1329 -0.0464  0.2052
19572SOL    HW260158   1.050   2.316   3.644 -0.5806  0.2842 -0.3206
19573SOL     OW60159   4.335   3.778   0.350  0.1881  0.1592 -0.4334
19573SOL    HW160160   4.427   3.759   0.370  0.5824  1.9414 -0.4361
19573SOL    HW260161   4.333   3.789   0.255 -0.5365 -2.2613 -0.7696
19574SOL     OW60162   5.164   2.603   5.929  0.0668  0.3569 -0.1549
19574SOL    HW160163   5.193   2.680   5.880 -0.1514  0.2389 -0.4653
19574SOL    HW260164   5.245   2.555   5.947  0.2095  0.6806  0.0779
19575SOL     OW60165   3.232   7.575   9.913 -0.1330  0.2949 -0.0895
19575SOL    HW160166   3.305   7.636   9.928 -0.7786  1.3100 -0.9974
19575SOL    HW260167   3.195   7.562  10.000  0.5411  0.5091  0.2438
19576SOL     OW60168   7.800   2.856   1.080  0.0506  0.0280 -0.0342
19576SOL    HW160169   7.859   2.912   1.132  0.9481  0.0432 -1.0469
19576SOL    HW260170   7.740   2.918   1.038  0.1869  0.1262 -0.0862
19577SOL     OW60171   4.363   6.678   7.008  0.1545 -0.1534  0.4697
19577SOL    HW160172   4.443   6.683   6.956 -0.0252 -0.6978  0.1423
19577SOL    HW260173   4.294   6.711   6.950  0.4506  2.4579  1.4604
19578SOL     OW60174   2.264   7.439   0.680  0.5585 -0.2061  0.7200
19578SOL    HW160175   2.221   7.454   0.596 -1.0755 -0.6666  1.4309
19578SOL    HW260176   2.321   7.363   0.664 -0.5041 -0.9367  0.2693
19579SOL     OW60177   5.116   4.426  11.733  0.2137 -0.1581  0.6291
19579SOL    HW160178   5.114   4.440  11.638 -1.2536 -1.4172  0.4506
19579SOL    HW260179   5.194   4.474  11.762  0.6187  0.3588 -1.1803
19580SOL     OW60180   0.327   7.655   2.166  0.2650  0.2471  0.2368
19580SOL    HW160181   0.301   7.577   2.118 -1.4633  1.1270 -0.3244
19580SOL    HW260182   0.416   7.635   2.198 -0.1828 -1.9781  0.2456
19581SOL     OW60183   3.737   7.821   8.013 -0.0564  0.3042  0.2317
19581SOL    HW160184   3.802   7.831   8.082 -1.5258  0.5461  1.6369
19581SOL    HW260185   3.728   7.726   8.002  0.0339  0.2579  0.5403
19582SOL     OW60186   2.593   7.213   6.351  0.7010 -0.1789 -0.1170
19582SOL    HW160187   2.679   7.229   6.313 -0.1424  0.0915 -2.0045
19582SOL    HW260188   2.535   7.199   6.276 -0.6525 -1.7382  1.1305
19583SOL     OW60189   5.750   1.276   9.791 -0.7662 -0.0103 -0.1977
19583SOL    HW160190   5.703   1.233   9.863  0.0091 -1.2761 -0.4109
19583SOL    HW260191   5.714   1.234   9.712 -0.3441  0.0907 -0.4435
19584SOL     OW60192   6.638   5.591  12.244  0.1116 -0.3751  0.1058
19584SOL    HW160193   6.714   5.643  12.269  0.6167 -1.5180  1.0648
19584SOL    HW260194   6.667   5.545  12.165 -0.0890  0.2582 -0.3401
19585SOL     OW60195   3.546   7.793   2.754 -0.0588  0.7410  0.2525
19585SOL    HW160196   3.529   7.714   2.806  0.6597 -1.6267 -2.7917
19585SOL    HW260197   3.627   7.829   2.790  0.0921 -0.4162  1.1323
19586SOL     OW60198   0.809   3.709   1.912  0.3574 -0.4424 -0.2819
19586SOL    HW160199   0.758   3.750   1.981 -0.5530 -0.7679 -0.7495
19586SOL    HW260200   0.809   3.772   1.841 -2.3822 -1.7675 -1.6152
19587SOL     OW60201   7.562   1.556   4.465 -0.3254 -0.6037 -0.3621
19587SOL    HW160202   7.494   1.612   4.425 -0.3977 -0.0597  0.4809
19587SOL    HW260203   7.523   1.469   4.466 -0.1878 -0.7085 -1.7636
19588SOL     OW60204   6.842   0.552  10.652  0.1937  0.1173 -0.0230
19588SOL    HW160205   6.808   0.627  10.604  0.6494  0.7628  0.6432
19588SOL    HW260206   6.897   0.506  10.588 -0.4932  0.0626 -0.5811
19589SOL     OW60207   7.371   7.659   6.973  0.1661 -0.4766 -0.1304
19589SOL    HW160208   7.431   7.587   6.993  1.5155  0.6673  0.0650
19589SOL    HW260209   7.341   7.690   7.058  1.4483  0.6986 -0.0778
19590SOL     OW60210   2.935   2.878   7.121 -0.0508  0.1420 -0.1015
19590SOL    HW160211   2.958   2.968   7.145 -2.0945  0.2556  1.6295
19590SOL    HW260212   2.985   2.823   7.181 -0.0316  0.1580 -0.1028
19591SOL     OW60213   4.750   2.739   9.791  0.3996  0.1307 -0.1952
19591SOL    HW160214   4.785   2.796   9.722 -2.3383  2.3151  0.0251
19591SOL    HW260215   4.712   2.665   9.744  1.3046  0.0318 -0.7805
19592SOL     OW60216   5.587   3.458   2.020  0.4273 -0.4133 -0.0183
19592SOL    HW160217   5.572   3.375   2.065  0.1308  0.0457  0.7550
19592SOL    HW260218   5.513   3.465   1.960  0.6142 -0.8498 -0.3023
19593SOL     OW60219   5.882   7.822   7.522  0.4076  0.1051 -0.4519
19593SOL    HW160220   5.818   7.754   7.545  0.0942  0.9770  1.5319
19593SOL    HW260221   5.958   7.803   7.578  2.0312 -1.0043 -2.8913
19594SOL     OW60222   5.461   1.096   8.530  0.0346 -0.0215 -0.2208
19594SOL    HW160223   5.438   1.086   8.623  0.8884  1.7510  0.2397
19594SOL    HW260224   5.550   1.061   8.524  0.4728  1.0340 -0.0664
19595SOL     OW60225   7.507   1.923   9.728  0.3943  0.3779  0.3403
19595SOL    HW160226   7.453   1.879   9.794  0.3398 -0.9203 -0.5367
19595SOL    HW260227   7.597   1.902   9.753  0.3565 -0.5645 -0.2874
19596SOL     OW60228   1.737   1.760   8.291  0.0140  0.0761  0.2370
19596SOL    HW160229   1.782   1.741   8.208 -0.1518  1.5985 -0.2257
19596SOL    HW260230   1.780   1.838   8.325 -1.3595  0.7514  0.4790
19597SOL     OW60231   1.279   3.376   7.891  0.1777  0.6708  0.2058
19597SOL    HW160232   1.208   3.431   7.857 -0.1141  1.0516  1.3907
19597SOL    HW260233   1.359   3.426   7.873  0.3956 -0.5567 -2.7732
19598SOL     OW60234   7.498   7.619  10.193  0.1711 -0.7979  0.3598
19598SOL    HW160235   7.411   7.654  10.175  0.8455  0.7445 -0.0358
19598SOL    HW260236   7.558   7.690  10.172  1.4336 -1.1024  2.5632
19599SOL     OW60237   4.521   5.304  10.736  0.4102 -0.3333  0.0669
19599SOL    HW160238   4.573   5.233  10.773  2.0414  1.3054  1.1345
19599SOL    HW260239   4.582   5.350  10.677 -1.4968 -1.5821 -3.1534
19600SOL     OW60240   1.802   5.686   3.454  0.3365 -0.0515  0.0316
19600SOL    HW160241   1.717   5.642   3.462  0.8080 -0.9112  0.5389
19600SOL    HW260242   1.825   5.710   3.544  0.2574  0.9236 -0.2024
19601SOL     OW60243   4.517   5.981   1.491 -0.0752  0.8932  0.2640
19601SOL    HW160244   4.466   5.920   1.546  1.3939 -0.1748  0.5057
19601SOL    HW260245   4.511   6.065   1.537 -0.7011  0.5377  0.8651
19602SOL     OW60246   5.860   3.169  10.408  0.1283  0.2843 -0.3989
19602SOL    HW160247   5.798   3.202  10.474 -0.5356 -1.6620  0.0406
19602SOL    HW260248   5.826   3.083  10.385  3.2448 -1.4213  0.7042
19603SOL     OW60249   4.939   0.713  12.088 -0.1450  0.0257 -0.1570
19603SOL    HW160250   4.898   0.627  12.093  0.8939 -0.4421  1.0106
19603SOL    HW260251   4.924   0.752  12.174 -0.1185  0.7758 -0.4856
19604SOL     OW60252   5.832   5.469   4.242  0.1350 -0.0882 -0.0204
19604SOL    HW160253   5.753   5.420   4.220  0.3132  0.2179 -1.4692
19604SOL    HW260254   5.800   5.551   4.278 -0.1665 -0.9616  1.8227
19605SOL     OW60255   3.675   4.593  11.154 -0.1207  0.2278  0.1008
19605SOL    HW160256   3.665   4.499  11.166 -0.7410  0.2911  0.1343
19605SOL    HW260257   3.758   4.603  11.108  0.2779 -0.2909  0.6869
19606SOL     OW60258   6.143   6.432   7.010 -1.2845 -0.3336 -0.4529
19606SOL    HW160259   6.154   6.354   7.063  1.6104 -0.0567 -0.4473
19606SOL    HW260260   6.188   6.412   6.928 -0.4302  1.2839 -0.4294
19607SOL     OW60261   3.341   1.957   3.836  0.1462 -0.6294  0.1527
19607SOL    HW160262   3.294   1.934   3.755  0.2325 -1.0634  0.2239
19607SOL    HW260263   3.409   1.890   3.844  0.6475 -0.1263  0.1634
19608SOL     OW60264   1.331   3.632  11.228 -0.0952 -0.6326  0.1440
19608SOL    HW160265   1.242   3.638  11.195  0.0105 -0.2953 -0.0897
19608SOL    HW260266   1.385   3.621  11.150  0.1134 -0.2822  0.2335
19609SOL     OW60267   7.425   5.006   2.499 -0.1936 -0.4040  0.3988
19609SOL    HW160268   7.367   5.027   2.426  0.1871  1.5281  0.6001
19609SOL    HW260269   7.480   5.084   2.509  1.1350 -1.4309  1.4438
19610SOL     OW60270   7.517   0.811   8.523  0.2510  0.6124 -0.2849
19610SOL    HW160271   7.486   0.817   8.433 -0.4031  1.8749  0.0079
19610SOL    HW260272   7.581   0.882   8.532  1.3469 -0.3627 -0.1358
19611SOL     OW60273   1.502   7.523   3.212  0.0133  0.1741  0.0532
19611SOL    HW160274   1.517   7.545   3.120  0.8321  1.4523  0.4654
19611SOL    HW260275   1.589   7.525   3.252 -0.5784  2.5580  1.4290
19612SOL     OW60276   3.305   1.062   4.001 -0.5835  0.3327  0.0097
19612SOL    HW160277   3.232   1.009   3.969 -1.4765  1.4985  0.0139
19612SOL    HW260278   3.335   1.110   3.923  0.0829 -0.0249  0.0419
19613SOL     OW60279   2.240   0.701   4.493  0.2836 -0.0019 -0.6134
19613SOL    HW160280   2.184   0.726   4.567 -2.0401 -1.3391 -1.8231
19613SOL    HW260281   2.300   0.774   4.483 -0.3892  0.9291  1.5808
19614SOL     OW60282   2.882   7.542   0.555  0.0937 -0.1127  0.2141
19614SOL    HW160283   2.923   7.464   0.516 -0.8517 -0.1893 -0.6838
19614SOL    HW260284   2.951   7.582   0.608  0.4989 -1.7706  1.0049
19615SOL     OW60285   2.057   3.971   7.944  0.2118 -0.5306  0.0922
19615SOL    HW160286   2.131   3.938   7.892  1.9095 -0.4135  2.2628
19615SOL    HW260287   2.075   4.065   7.953 -0.5244 -0.3947  0.1833
19616SOL     OW60288   1.361   5.001   6.612  0.1610  0.1988 -0.0608
19616SOL    HW160289   1.366   5.022   6.705  1.1334 -1.6818  0.3697
19616SOL    HW260290   1.395   5.078   6.567 -0.3526  1.1397  1.1226
19617SOL     OW60291   4.783   1.079   7.442  0.7746  0.2053  0.0180
19617SOL    HW160292   4.878   1.066   7.438  0.7034 -0.5433  0.5934
19617SOL    HW260293   4.770   1.138   7.516  0.6020 -1.9660  1.7981
19618SOL     OW60294   5.163   4.159  11.765  0.1825 -0.4316 -0.1579
19618SOL    HW160295   5.254   4.158  11.797 -0.3483 -0.9921  1.4326
19618SOL    HW260296   5.145   4.251  11.747  0.0830  0.1486  2.5855
19619SOL     OW60297   1.126   2.145   6.422 -0.2651 -0.1641  0.2180
19619SOL    HW160298   1.098   2.168   6.334 -0.1785 -1.8661 -0.2939
19619SOL    HW260299   1.044   2.141   6.473 -0.2105  2.0276  0.5686
19620SOL     OW60300   3.664   1.697   8.353  0.2520 -0.0548 -0.2408
19620SOL    HW160301   3.744   1.749   8.342 -0.0324  0.2970 -0.6940
19620SOL    HW260302   3.672   1.625   8.290  1.6702 -1.8843  1.9003
19621SOL     OW60303   6.689   7.586  10.289  0.3712 -0.3816 -0.5151
19621SOL    HW160304   6.633   7.558  10.217  0.5236 -1.3745 -0.2704
19621SOL    HW260305   6.676   7.681  10.295  1.3774 -0.0587 -2.6958
19622SOL     OW60306   0.004   7.635   6.221  0.5345  0.0763 -0.0766
19622SOL    HW160307   0.099   7.651   6.219  0.5902 -0.3161 -0.6343
19622SOL    HW260308  -0.029   7.680   6.144  0.7878 -3.0033 -2.1401
19623SOL     OW60309   1.880   6.831  10.420  0.2076 -0.1646  0.2634
19623SOL    HW160310   1.901   6.744  10.387  0.9219 -1.0268  2.8060
19623SOL    HW260311   1.803   6.858  10.369  0.2138 -2.0829 -0.8451
19624SOL     OW60312   7.658   6.825   7.628  0.1055 -0.2565 -0.0639
19624SOL    HW160313   7.606   6.905   7.631  1.9581  0.9927 -0.3179
19624SOL    HW260314   7.671   6.801   7.720 -1.0191 -0.6947  0.0037
19625SOL     OW60315   2.551   7.281   5.514 -0.4091  0.2169  0.4104
19625SOL    HW160316   2.571   7.245   5.428 -1.3819  0.4441  0.0720
19625SOL    HW260317   2.632   7.323   5.542  0.5539 -1.6145  0.5229
19626SOL     OW60318   4.930   1.808  10.038 -0.1049 -0.3139  0.1046
19626SOL    HW160319   4.846   1.838  10.075 -1.6444 -1.7684 -1.9743
19626SOL    HW260320   4.939   1.718  10.069  1.0114 -0.0118  0.7288
19627SOL     OW60321   1.147   5.874   7.050 -0.2599  0.4593  0.7176
19627SOL    HW160322   1.089   5.809   7.090 -2.2062  1.1416 -0.7859
19627SOL    HW260323   1.213   5.822   7.004  0.1122 -0.3638  2.1296
19628SOL     OW60324   7.492   2.685   3.981 -0.0054  0.0505  0.3058
19628SOL    HW160325   7.585   2.660   3.980  0.5758  2.0326  0.9592
19628SOL    HW260326   7.486   2.753   4.047 -2.2367 -0.9932  1.2728
19629SOL     OW60327   1.901   3.168   6.582 -0.3928  0.2792 -0.1975
19629SOL    HW160328   1.830   3.228   6.557 -1.4832 -1.8581 -2.7177
19629SOL    HW260329   1.945   3.148   6.499  1.1018 -0.9783  0.8532
19630SOL     OW60330   3.324   4.584   6.995  0.7190 -0.1868  0.3976
19630SOL    HW160331   3.329   4.567   7.089 -0.3919  0.8510  0.6813
19630SOL    HW260332   3.259   4.654   6.987 -0.1614 -1.1211 -1.2541
19631SOL     OW60333   4.746   1.789   2.524 -0.3627  0.6464  0.6105
19631SOL    HW160334   4.683   1.852   2.492  0.1253  0.9162  0.1681
19631SOL    HW260335   4.722   1.707   2.482 -0.1093  0.8602  0.0409
19632SOL     OW60336   5.874   7.746  12.115 -0.2143 -0.0762  0.1044
19632SOL    HW160337   5.955   7.769  12.069  0.2969  0.6090  1.2940
19632SOL    HW260338   5.839   7.830  12.145 -0.8395 -0.4554  0.4542
19633SOL     OW60339   0.854   5.611   4.409  0.3082 -0.1899  0.1006
19633SOL    HW160340   0.835   5.695   4.450 -2.7149 -1.4555  1.6928
19633SOL    HW260341   0.917   5.569   4.467  0.9815  0.5089 -0.1086
19634SOL     OW60342   6.550   5.505   1.835  0.1399 -0.9199  0.3678
19634SOL    HW160343   6.636   5.479   1.868  1.3722 -1.6822 -3.0581
19634SOL    HW260344   6.498   5.425   1.837  0.0723 -0.8663  0.8131
19635SOL     OW60345   6.828   4.894   9.351  0.1346  0.6212  0.4406
19635SOL    HW160346   6.797   4.968   9.299 -0.5410  0.3744  0.4757
19635SOL    HW260347   6.914   4.921   9.385  1.3965  0.1558 -2.1566
19636SOL     OW60348   2.204   1.204   2.977  0.0207 -0.1248 -0.1929
19636SOL    HW160349   2.220   1.134   3.039 -0.4113  1.0685  1.3154
19636SOL    HW260350   2.223   1.285   3.025  0.1593  0.8191 -1.7622
19637SOL     OW60351   5.188   5.903   3.268 -0.0812 -0.1590  0.6463
19637SOL    HW160352   5.174   5.881   3.176  0.3076 -1.7064  0.9395
19637SOL    HW260353   5.118   5.966   3.288  0.9817  1.7476 -1.1816
19638SOL     OW60354   5.270   7.644   4.986  0.7160  0.4297  0.0113
19638SOL    HW160355   5.176   7.645   4.969  0.3950 -1.4302  1.3887
19638SOL    HW260356   5.310   7.661   4.900 -0.8529  0.2481 -0.7893
19639SOL     OW60357   2.718   6.796  10.398  0.6618  0.4598  0.4864
19639SOL    HW160358   2.674   6.739  10.461 -0.3368  0.0889 -0.5273
19639SOL    HW260359   2.811   6.781  10.414  0.4220 -0.7071  0.9022
19640SOL     OW60360   0.831   1.299   7.459  0.2208  0.1331  0.6114
19640SOL    HW160361   0.777   1.267   7.531  0.1831  0.9921  0.9799
19640SOL    HW260362   0.919   1.305   7.495  0.8161 -2.2109 -0.2692
19641SOL     OW60363   5.460   7.678   7.202 -0.5215 -0.3806 -0.4836
19641SOL    HW160364   5.522   7.744   7.232  1.1263 -1.8560 -0.4989
19641SOL    HW260365   5.437   7.705   7.113 -0.0362  0.2590 -0.4182
19642SOL     OW60366   1.451   1.603   0.922  0.0622  0.1089  0.3359
19642SOL    HW160367   1.367   1.577   0.884 -0.1765  0.4474  0.6273
19642SOL    HW260368   1.502   1.636   0.849  0.0478 -0.3580  0.1089
19643SOL     OW60369   6.876   3.368   5.267  0.3039  0.3224 -0.5021
19643SOL    HW160370   6.825   3.297   5.228 -0.8968  0.7834  0.1882
19643SOL    HW260371   6.938   3.323   5.325 -0.1484 -0.1912 -0.4076
19644SOL     OW60372   6.476   2.680  12.391  0.0474 -0.1002  0.1428
19644SOL    HW160373   6.421   2.634  12.328  2.1452 -1.2096 -0.9487
19644SOL    HW260374   6.441   2.655  12.477  0.3770 -2.8204 -0.4501
19645SOL     OW60375   3.826   4.726   0.281 -0.1643  0.0164  0.4704
19645SOL    HW160376   3.752   4.786   0.289 -1.7568 -1.6488 -0.8278
19645SOL    HW260377   3.880   4.742   0.358 -2.6993  0.2166  2.3072
19646SOL     OW60378   5.234   0.370  12.398  0.1380  0.4495 -0.3219
19646SOL    HW160379   5.272   0.360  12.486  0.2268 -0.4888 -0.4590
19646SOL    HW260380   5.307   0.349  12.339 -0.2062  0.0458 -0.6040
19647SOL     OW60381   2.187   5.953  11.667  0.0202 -0.1745 -0.3239
19647SOL    HW160382   2.138   5.896  11.727  0.0933 -0.0915 -0.1846
19647SOL    HW260383   2.255   5.896  11.631 -1.6231 -0.9865 -2.3752
19648SOL     OW60384   1.142   3.446   7.509 -0.1800  0.2469 -0.3521
19648SOL    HW160385   1.052   3.444   7.542  0.8124  1.8764  2.8508
19648SOL    HW260386   1.175   3.531   7.535  2.6426 -0.7141 -0.4958
19649SOL     OW60387   3.754   1.790   7.059 -0.4217  0.6355 -0.1731
19649SOL    HW160388   3.782   1.701   7.077 -1.0440  0.4220 -0.2644
19649SOL    HW260389   3.813   1.820   6.989 -0.2281  0.2955 -0.1563
19650SOL     OW60390   1.764   4.667   4.376 -0.0334 -0.4600 -0.3271
19650SOL    HW160391   1.711   4.712   4.310 -0.0822 -1.7979 -1.2357
19650SOL    HW260392   1.804   4.594   4.329  2.9440  0.6693  0.2104
19651SOL     OW60393   2.450   0.906   4.510 -0.5483  0.7908 -0.0944
19651SOL    HW160394   2.486   0.949   4.588  2.6841 -1.9779  0.2011
19651SOL    HW260395   2.519   0.917   4.444 -0.7186 -1.6205 -0.7427
19652SOL     OW60396   0.956   1.776   8.668  0.6767  0.1881  0.1575
19652SOL    HW160397   1.015   1.814   8.733  0.0870  2.0714 -0.3635
19652SOL    HW260398   0.993   1.803   8.584 -0.2843  0.4011 -0.2039
19653SOL     OW60399   1.558   7.158  11.991 -0.6891 -0.4169  0.0302
19653SOL    HW160400   1.623   7.089  11.994 -2.2789 -2.0418 -0.6803
19653SOL    HW260401   1.527   7.158  11.900 -0.2727  1.7231 -0.1694
19654SOL     OW60402   2.865   0.156   7.234 -0.0699  0.4464 -0.1249
19654SOL    HW160403   2.814   0.076   7.222 -1.2971  1.3636 -1.4683
19654SOL    HW260404   2.831   0.194   7.315 -0.3094  0.1945 -0.1060
19655SOL     OW60405   3.857   7.134  11.404 -0.1436  0.3356 -0.1311
19655SOL    HW160406   3.858   7.066  11.472  1.8754  0.9828  0.5448
19655SOL    HW260407   3.838   7.215  11.451 -3.4366  0.2657 -1.0517
19656SOL     OW60408   3.114   0.716   7.618 -0.0827  0.1151  0.3021
19656SOL    HW160409   3.166   0.682   7.691 -0.6984 -1.7974 -0.0957
19656SOL    HW260410   3.177   0.766   7.566  0.8749 -0.3748  0.9592
19657SOL     OW60411   5.002   1.521   4.109 -0.4267  0.0826  0.0840
19657SOL    HW160412   4.919   1.551   4.072 -0.0155  1.7295  0.4316
19657SOL    HW260413   4.989   1.427   4.124 -2.6811  0.5297  1.3200
19658SOL     OW60414   1.529   1.203   0.338 -0.6442 -0.5762 -0.3530
19658SOL    HW160415   1.477   1.191   0.259  0.1422 -0.6339 -0.8715
19658SOL    HW260416   1.583   1.280   0.320  0.9071 -1.7016 -0.6312
19659SOL     OW60417   6.212   7.062   9.404 -0.3180  0.9490  0.1933
19659SOL    HW160418   6.158   7.099   9.473 -1.8429  0.2150 -0.5565
19659SOL    HW260419   6.225   7.134   9.342 -0.8622  1.0035  0.1373
19660SOL     OW60420   2.854   2.358   1.002 -0.0574 -0.0848  0.2420
19660SOL    HW160421   2.904   2.421   0.949 -0.9083  0.7111  0.3615
19660SOL    HW260422   2.910   2.280   1.005  1.2760  0.8441  0.5512
19661SOL     OW60423   2.875   7.363   7.005 -0.1297 -0.7841  0.1464
19661SOL    HW160424   2.948   7.352   7.066 -0.1284  0.3253  0.3631
19661SOL    HW260425   2.816   7.291   7.026 -0.3129 -0.2091  1.7417
19662SOL     OW60426   3.364   7.679   8.285 -0.3065 -0.1723 -0.0255
19662SOL    HW160427   3.307   7.738   8.236 -2.5389 -1.9944  0.1983
19662SOL    HW260428   3.306   7.610   8.317  2.1314 -2.6326 -0.4605
19663SOL     OW60429   5.896   4.504   5.282  0.2287 -0.9167 -0.6520
19663SOL    HW160430   5.854   4.419   5.291 -1.2355 -0.0540  1.6907
19663SOL    HW260431   5.985   4.491   5.313  0.5421 -1.9006 -1.8793
19664SOL     OW60432   1.014   4.146  10.910 -0.6042 -0.2421  0.1962
19664SOL    HW160433   1.022   4.174  10.819 -0.5153  1.2453  0.6398
19664SOL    HW260434   0.953   4.208  10.950 -0.3220 -0.6191  1.2635
19665SOL     OW60435   7.192   3.999   1.923 -0.4163  0.8634 -0.0441
19665SOL    HW160436   7.195   4.002   1.827 -0.3264 -0.9577 -0.1336
19665SOL    HW260437   7.102   4.023   1.945 -1.1756 -1.1231 -0.7669
19666SOL     OW60438   5.701   4.397   2.476 -0.4709 -0.1154 -0.0314
19666SOL    HW160439   5.667   4.383   2.564 -1.1542 -1.7673 -0.5203
19666SOL    HW260440   5.743   4.315   2.453 -0.1511  0.3549 -1.1855
19667SOL     OW60441   4.847   5.206   4.777 -0.1115  0.0243  0.4029
19667SOL    HW160442   4.866   5.249   4.861  0.2340  3.4241 -1.2625
19667SOL    HW260443   4.753   5.220   4.764 -0.6772 -2.5242  1.1602
19668SOL     OW60444   6.559   3.604   5.849  0.3498  0.2716  0.2961
19668SOL    HW160445   6.468   3.575   5.838  1.0243 -1.7516 -0.4060
19668SOL    HW260446   6.596   3.599   5.761  1.6675 -0.9104  0.8852
19669SOL     OW60447   5.514   3.363   9.481  0.1267 -0.0722  0.5314
19669SOL    HW160448   5.430   3.334   9.516 -0.8572  1.8952 -0.0507
19669SOL    HW260449   5.551   3.284   9.440 -1.9516 -0.7572 -0.1735
19670SOL     OW60450   3.318   6.332   1.910  0.0843  0.1785  0.5917
19670SOL    HW160451   3.259   6.330   1.835 -0.6919  2.3224  1.0774
19670SOL    HW260452   3.364   6.415   1.902 -0.1876  0.5731  2.5974
19671SOL     OW60453   5.201   6.921   1.268  0.0704 -0.3443  0.7354
19671SOL    HW160454   5.287   6.879   1.271 -0.2585 -1.0316  0.7825
19671SOL    HW260455   5.178   6.924   1.175  0.4358  0.4631  0.6615
19672SOL     OW60456   3.483   7.251   9.875  0.1686 -0.0492  0.1680
19672SOL    HW160457   3.432   7.316   9.826  1.2506 -0.0937 -1.0640
19672SOL    HW260458   3.417   7.193   9.913 -0.7339 -0.4729 -1.9005
19673SOL     OW60459   5.901   1.461  11.429  0.2622  0.0148 -0.7886
19673SOL    HW160460   5.904   1.411  11.510 -0.8796 -0.5268 -1.0727
19673SOL    HW260461   5.815   1.443  11.391  1.5083 -1.4281 -3.1815
19674SOL     OW60462   2.889   6.882   4.064  0.1598 -0.2966  0.7343
19674SOL    HW160463   2.894   6.837   3.980 -2.3566  1.1323 -0.2680
19674SOL    HW260464   2.820   6.835   4.112  0.6815 -0.3026  1.4997
19675SOL     OW60465   0.357   1.542   4.284 -0.0336  0.5731 -0.1893
19675SOL    HW160466   0.446   1.513   4.306 -0.3441 -0.7340 -0.5899
19675SOL    HW260467   0.364   1.638   4.281  0.7050  0.6629  2.4804
19676SOL     OW60468   6.940   2.304  12.098 -0.1635  0.1481 -0.3547
19676SOL    HW160469   6.998   2.277  12.026 -0.4840 -2.2909  0.2190
19676SOL    HW260470   6.985   2.276  12.177 -1.3632 -0.2604  0.2023
19677SOL     OW60471   3.450   6.571   8.402  0.0744 -0.0650 -0.4707
19677SOL    HW160472   3.481   6.492   8.357  1.0886  0.5862 -0.9512
19677SOL    HW260473   3.530   6.613   8.434 -0.5932 -0.6068  2.1832
19678SOL     OW60474   1.947   6.632   5.926  0.0595 -0.0941  0.5932
19678SOL    HW160475   1.991   6.709   5.963 -0.1680  0.5202 -0.3801
19678SOL    HW260476   1.963   6.637   5.832  1.5468 -2.2136  0.6625
19679SOL     OW60477   5.721   7.917  10.482  0.3012 -0.3332 -0.1035
19679SOL    HW160478   5.760   7.994  10.441  1.3309 -0.6657  0.2271
19679SOL    HW260479   5.726   7.849  10.416  0.7985 -0.5235  0.1236
19680SOL     OW60480   2.673   7.777   2.343 -0.3810  0.3375  0.0692
19680SOL    HW160481   2.607   7.804   2.279 -1.0495  0.2954  0.7240
19680SOL    HW260482   2.626   7.773   2.426  0.4775  0.4235  0.5780
19681SOL     OW60483   2.195   4.876   1.506  0.4473 -0.3560 -0.3225
19681SOL    HW160484   2.192   4.795   1.557  2.2567  1.0977  2.3119
19681SOL    HW260485   2.266   4.927   1.545  0.7805  1.6790 -3.2289
19682SOL     OW60486   4.167   2.567   0.362  0.5139 -0.0316 -0.3611
19682SOL    HW160487   4.134   2.647   0.321 -1.3784 -0.5403  0.0710
19682SOL    HW260488   4.223   2.528   0.295 -0.1399  0.6563 -1.3402
19683SOL     OW60489   3.806   5.212   1.583  0.3140  0.3784 -0.5767
19683SOL    HW160490   3.808   5.127   1.627 -1.0288  0.6028 -0.0109
19683SOL    HW260491   3.719   5.246   1.603  1.1557  2.3102  0.0041
19684SOL     OW60492   7.690   3.850  11.870  0.1951 -0.5173  0.5301
19684SOL    HW160493   7.607   3.802  11.872 -0.4886  0.6130  0.4694
19684SOL    HW260494   7.671   3.932  11.915  1.0926  0.0531 -0.0850
19685SOL     OW60495   7.759   4.179   6.136 -0.4219  0.0586 -0.0241
19685SOL    HW160496   7.819   4.138   6.075 -0.7935 -1.8839  0.8450
19685SOL    HW260497   7.719   4.251   6.086  0.2142 -0.6536 -1.6225
19686SOL     OW60498   1.774   1.709   8.636  0.1988  0.1909  0.0535
19686SOL    HW160499   1.857   1.729   8.593 -0.0574  2.3921  0.5088
19686SOL    HW260500   1.722   1.788   8.628 -1.1028 -0.4498  1.5635
19687SOL     OW60501   0.348   7.191   1.922 -0.5951 -0.4184 -0.5953
19687SOL    HW160502   0.426   7.143   1.894 -1.2529 -2.0572  0.2054
19687SOL    HW260503   0.290   7.190   1.846 -0.8317 -1.4654 -0.4267
19688SOL     OW60504   1.615   1.694   3.659 -0.2374 -0.2813  0.6087
19688SOL    HW160505   1.698   1.648   3.676  0.5741  0.4846 -1.0745
19688SOL    HW260506   1.599   1.743   3.740  0.4376 -1.1751  1.3164
19689SOL     OW60507   1.343   6.923   3.788  1.0292 -0.0884 -0.2030
19689SOL    HW160508   1.307   6.859   3.727 -1.8529  1.3675 -0.2037
19689SOL    HW260509   1.363   6.873   3.867 -1.3623 -1.0374 -0.1157
19690SOL     OW60510   3.159   2.205   6.119  0.2563 -0.1978  0.1794
19690SOL    HW160511   3.162   2.185   6.212 -0.8325 -0.5207  0.1584
19690SOL    HW260512   3.112   2.288   6.113 -0.8796 -0.8486 -0.1594
19691SOL     OW60513   2.240   3.060  11.203 -0.8601  0.3608 -0.3388
19691SOL    HW160514   2.217   3.121  11.273  0.0712 -0.7844  1.0115
19691SOL    HW260515   2.317   3.014  11.236 -1.2757 -1.2423 -1.5143
19692SOL     OW60516   5.342   4.557   2.961 -0.2265  0.0204 -0.0868
19692SOL    HW160517   5.374   4.636   3.006 -1.6757  0.4543  0.2547
19692SOL    HW260518   5.315   4.499   3.031  0.8168 -0.7940 -0.3419
19693SOL     OW60519   1.313   0.362  10.427  0.1068  0.1229  0.1135
19693SOL    HW160520   1.292   0.295  10.361  2.7298 -0.3744 -0.3054
19693SOL    HW260521   1.337   0.439  10.376  0.7654  0.1869  0.5159
19694SOL     OW60522   7.932   2.222  11.566 -0.4737 -0.2690  0.2312
19694SOL    HW160523   7.836   2.221  11.562 -0.4363 -1.2908 -1.6157
19694SOL    HW260524   7.956   2.132  11.587  0.1021 -0.5444 -1.4914
19695SOL     OW60525   3.680   0.078   4.356 -0.2572 -0.0174  0.1954
19695SOL    HW160526   3.625   0.148   4.390  0.7146  0.5386  0.6797
19695SOL    HW260527   3.748   0.068   4.423  0.3371 -0.5519 -0.4822
19696SOL     OW60528   5.157   3.321   8.898  0.0438  1.2392 -0.1717
19696SOL    HW160529   5.247   3.296   8.876  0.3151  1.0691  1.0680
19696SOL    HW260530   5.143   3.402   8.848  1.4942  2.2038  0.8794
19697SOL     OW60531   5.418   6.797   5.755  0.4571  0.1679 -0.6309
19697SOL    HW160532   5.491   6.772   5.812 -0.4976  0.9467  0.9920
19697SOL    HW260533   5.390   6.882   5.787 -2.2253 -0.8155 -0.0747
19698SOL     OW60534   1.420   1.304   1.119 -0.1610 -0.3375  0.1865
19698SOL    HW160535   1.327   1.296   1.140 -0.2855 -1.0253 -0.5675
19698SOL    HW260536   1.445   1.216   1.090  0.2132  0.3526 -1.6675
19699SOL     OW60537   7.352   0.124   8.498 -0.3443  0.4489  0.0153
19699SOL    HW160538   7.307   0.167   8.571  0.6397  1.1665  0.2285
19699SOL    HW260539   7.381   0.040   8.533 -0.1636  0.6506  0.3492
19700SOL     OW60540   3.183   4.484   0.525 -0.7713  0.4628 -0.4999
19700SOL    HW160541   3.103   4.496   0.577  1.1112  0.1873  2.7696
19700SOL    HW260542   3.221   4.572   0.520  0.0301  0.1915  0.4221
19701SOL     OW60543   2.968   7.157   0.118  0.0279 -0.2565  0.3558
19701SOL    HW160544   2.966   7.195   0.030 -0.3967 -0.4063  0.2982
19701SOL    HW260545   3.026   7.081   0.109 -0.2488 -0.4438  0.1335
19702SOL     OW60546   2.518   1.585   1.371  0.2320  0.1248  1.2807
19702SOL    HW160547   2.492   1.624   1.288  0.4117 -0.7880  0.7761
19702SOL    HW260548   2.467   1.504   1.376  0.3255  0.1074  1.9963
19703SOL     OW60549   7.419   4.373   0.337  0.8409  0.0519 -0.0635
19703SOL    HW160550   7.343   4.430   0.328  0.8891 -0.0311 -1.2374
19703SOL    HW260551   7.390   4.303   0.395  0.3913  0.6279  0.4177
19704SOL     OW60552   2.284   4.681   0.387  0.0105  0.6259 -0.1567
19704SOL    HW160553   2.299   4.704   0.479 -1.8138 -2.1664  0.9877
19704SOL    HW260554   2.199   4.638   0.387  0.6355 -0.8530 -2.8973
19705SOL     OW60555   6.407   1.547   7.916  0.8209  0.6689  0.7081
19705SOL    HW160556   6.476   1.515   7.858 -0.6576  0.8746 -1.2882
19705SOL    HW260557   6.373   1.625   7.873 -1.6027 -0.2274  0.8275
19706SOL     OW60558   3.962   2.563  10.049  0.6710 -0.1173  0.0686
19706SOL    HW160559   3.948   2.619   9.973 -0.0820 -1.0406 -0.4901
19706SOL    HW260560   4.057   2.556  10.057  0.8590  2.3264  0.9913
19707SOL     OW60561   3.592   2.565   4.632 -0.3868 -0.2488 -0.5274
19707SOL    HW160562   3.656   2.496   4.617  1.9814  2.0633 -1.7810
19707SOL    HW260563   3.511   2.531   4.593  0.6594 -2.2587 -1.0944
19708SOL     OW60564   2.192   2.456   2.369  0.3265  0.7973  0.5006
19708SOL    HW160565   2.114   2.510   2.382 -0.0994  0.4379 -0.4178
19708SOL    HW260566   2.174   2.376   2.418 -1.0498 -0.3494 -1.6864
19709SOL     OW60567   4.615   0.094   0.683 -0.5335 -0.3077  0.0443
19709SOL    HW160568   4.570   0.022   0.639 -0.4555 -0.0672 -0.4436
19709SOL    HW260569   4.684   0.053   0.734 -1.2498 -0.6791  0.7396
19710SOL     OW60570   1.591   0.154  11.699 -0.0825  0.0907 -0.2883
19710SOL    HW160571   1.575   0.095  11.772  0.1486 -0.2023 -0.4704
19710SOL    HW260572   1.546   0.113  11.625  0.0997  0.1306 -0.4212
19711SOL     OW60573   3.501   1.279   9.753 -0.2806 -0.9105 -0.0912
19711SOL    HW160574   3.488   1.186   9.771 -0.7358 -0.5750  1.4301
19711SOL    HW260575   3.458   1.324   9.825 -0.5635  0.5109 -1.0924
19712SOL     OW60576   2.516   5.572   8.765  0.0007 -0.2247  0.3381
19712SOL    HW160577   2.489   5.500   8.708  0.5565 -0.0214 -0.2001
19712SOL    HW260578   2.542   5.530   8.847  1.3838 -0.7683 -0.3469
19713SOL     OW60579   4.660   5.439   7.069  0.3940 -0.0677  0.3418
19713SOL    HW160580   4.649   5.509   7.133 -0.5366 -1.7312  2.1206
19713SOL    HW260581   4.750   5.448   7.038 -0.0122  2.5158 -0.3342
19714SOL     OW60582   0.534   1.277   3.500  0.2548  0.7504 -0.3411
19714SOL    HW160583   0.559   1.193   3.462  1.5980  1.0894 -0.2876
19714SOL    HW260584   0.529   1.261   3.594 -3.1916 -0.1186 -0.5446
19715SOL     OW60585   7.415   2.666   1.238 -0.3026 -0.0236  0.5261
19715SOL    HW160586   7.331   2.623   1.256 -0.5897  0.9589  1.6900
19715SOL    HW260587   7.440   2.705   1.322  0.6196  0.9255 -0.1668
19716SOL     OW60588   0.256   4.626   9.263  0.1794  0.0296 -0.2197
19716SOL    HW160589   0.263   4.533   9.282 -1.2367  0.2867  1.8375
19716SOL    HW260590   0.301   4.670   9.335 -1.2908  0.9699  0.1770
19717SOL     OW60591   7.899   2.880   7.272 -0.9629  0.5800 -0.2315
19717SOL    HW160592   7.974   2.929   7.240 -1.7775  0.7985 -1.9003
19717SOL    HW260593   7.929   2.789   7.274 -0.1835  0.8390  0.6382
19718SOL     OW60594   6.509   2.040  12.403  0.0317 -0.6831 -0.2984
19718SOL    HW160595   6.426   2.000  12.380  0.3785 -1.0322 -0.9579
19718SOL    HW260596   6.497   2.133  12.384 -0.4847 -0.5890  0.4253
19719SOL     OW60597   2.352   6.488   8.676  0.1609  0.1483 -0.4517
19719SOL    HW160598   2.352   6.392   8.686 -1.4113 -0.1210 -2.4583
19719SOL    HW260599   2.330   6.521   8.763  0.1364 -1.3192  0.1340
19720SOL     OW60600   2.979   2.853   3.398  0.1687 -0.1884  0.5112
19720SOL    HW160601   3.027   2.887   3.473 -0.7521  0.1823  0.9399
19720SOL    HW260602   3.022   2.892   3.322 -0.2289  1.1488  0.9490
19721SOL     OW60603   6.645   3.503   5.310 -0.1557 -0.5061 -0.3347
19721SOL    HW160604   6.640   3.564   5.236 -1.0275  0.0868  0.1942
19721SOL    HW260605   6.726   3.455   5.296  0.6194  0.8610 -0.6965
19722SOL     OW60606   5.530   3.868   4.324 -0.6475  0.6046  0.4772
19722SOL    HW160607   5.525   3.959   4.353 -0.6924  0.6138  0.4403
19722SOL    HW260608   5.526   3.873   4.228 -1.5640  0.5051  0.5070
19723SOL     OW60609   7.350   3.393   6.076 -0.1032  0.0980 -0.3627
19723SOL    HW160610   7.426   3.336   6.062  0.5225  0.4473  1.4167
19723SOL    HW260611   7.387   3.481   6.085 -0.8027  0.3854 -0.2617
19724SOL     OW60612   7.499   0.146   6.796 -0.0021  0.3254 -0.2384
19724SOL    HW160613   7.582   0.137   6.844 -0.5923 -1.3068  0.5347
19724SOL    HW260614   7.432   0.136   6.863 -0.8385  0.4400 -1.0496
19725SOL     OW60615   3.112   4.594  11.856  0.0739  0.1316 -0.3152
19725SOL    HW160616   3.082   4.547  11.933  0.5457  1.4316  0.6905
19725SOL    HW260617   3.198   4.557  11.837 -0.1521 -0.3647 -0.3896
19726SOL     OW60618   5.805   4.842   2.020  0.1096 -0.3207  0.3576
19726SOL    HW160619   5.825   4.920   2.071  0.8962  1.2805 -2.1916
19726SOL    HW260620   5.889   4.797   2.010 -0.3154 -1.4904  1.6971
19727SOL     OW60621   4.625   3.894   5.879 -0.6262  0.5915  0.4728
19727SOL    HW160622   4.681   3.818   5.862 -0.6407  0.6046  0.3677
19727SOL    HW260623   4.686   3.964   5.902 -0.5151  0.9345 -0.8207
19728SOL     OW60624   2.769   0.957   6.397 -0.1588  0.4409 -0.1153
19728SOL    HW160625   2.839   1.000   6.447  0.9467 -3.5540  2.2975
19728SOL    HW260626   2.810   0.936   6.313  0.4422  1.0145  0.0218
19729SOL     OW60627   1.960   3.746  10.824  0.1677  0.5432 -0.1609
19729SOL    HW160628   1.889   3.785  10.874  0.1175 -0.0257  0.2206
19729SOL    HW260629   2.040   3.777  10.867  0.1768  1.8340 -1.0833
19730SOL     OW60630   3.050   2.080   4.933 -0.3140 -0.8773  0.6759
19730SOL    HW160631   3.137   2.053   4.904  0.5926 -1.0508  3.3105
19730SOL    HW260632   3.013   2.004   4.977 -1.6333 -0.6513  0.0300
19731SOL     OW60633   2.956   4.615  10.402  0.5670 -0.0284 -0.0576
19731SOL    HW160634   2.985   4.528  10.376  4.4472  1.3616 -0.9964
19731SOL    HW260635   2.901   4.645  10.329  2.0653 -0.4267 -1.3933
19732SOL     OW60636   4.630   2.389   3.769 -0.3608 -0.2322  0.4680
19732SOL    HW160637   4.681   2.310   3.787  0.0395 -0.5648 -1.8950
19732SOL    HW260638   4.690   2.461   3.789 -0.3334 -0.5203  1.4961
19733SOL     OW60639   3.749   7.056   6.309 -0.6042 -0.0331  0.7163
19733SOL    HW160640   3.697   7.048   6.389  0.4091  0.4334  1.4439
19733SOL    HW260641   3.838   7.071   6.340  0.0551 -1.2197 -0.4904
19734SOL     OW60642   2.122   5.209   1.585  0.1498 -0.0077  0.9126
19734SOL    HW160643   2.120   5.227   1.491 -0.2520  2.5179  1.3194
19734SOL    HW260644   2.212   5.224   1.611 -0.3324  2.5644  1.3821
19735SOL     OW60645   5.867   0.616  10.008  0.2567  0.0962  0.1846
19735SOL    HW160646   5.834   0.527  10.001 -2.3769  0.9914  0.2126
19735SOL    HW260647   5.857   0.639  10.100  1.9833  0.1093  0.4180
19736SOL     OW60648   6.506   6.665   6.246 -0.6355 -0.0278 -0.6022
19736SOL    HW160649   6.513   6.657   6.341  1.4017  1.0292 -0.6212
19736SOL    HW260650   6.564   6.597   6.212 -0.5036  0.3144 -1.0669
19737SOL     OW60651   7.276   3.520  10.672  0.1124  0.0058 -0.4049
19737SOL    HW160652   7.341   3.538  10.604  0.5996  1.1288  0.3241
19737SOL    HW260653   7.205   3.582  10.653 -0.2791 -0.4758 -0.5555
19738SOL     OW60654   7.586   1.046   8.290 -0.7603  0.2081 -0.1606
19738SOL    HW160655   7.494   1.021   8.301 -0.1579 -1.4768  1.5785
19738SOL    HW260656   7.624   1.035   8.377  0.7773  2.3641 -0.5003
19739SOL     OW60657   0.277   0.551   6.545 -0.3219  0.3723  0.1467
19739SOL    HW160658   0.216   0.591   6.606 -0.5111  1.7343 -0.8907
19739SOL    HW260659   0.294   0.619   6.480  1.8209 -0.1743  0.0638
19740SOL     OW60660   6.032   6.290   6.168  0.1313  0.2390  0.2870
19740SOL    HW160661   5.994   6.202   6.169 -0.9903  0.6792  2.3146
19740SOL    HW260662   5.960   6.346   6.139  0.4635  0.6256  0.2095
19741SOL     OW60663   0.462   4.686   8.041 -0.1560  0.1623 -0.6320
19741SOL    HW160664   0.506   4.770   8.058  1.8431 -0.9560  0.0679
19741SOL    HW260665   0.383   4.689   8.095  0.0694  1.4646 -0.3376
19742SOL     OW60666   7.465   4.674  12.349  0.3946 -0.1632  0.0882
19742SOL    HW160667   7.450   4.581  12.362 -1.4026  0.0804  0.0277
19742SOL    HW260668   7.463   4.686  12.254  3.6077 -0.4409 -0.1480
19743SOL     OW60669   6.126   7.055   7.354  0.5505  0.0547  0.1351
19743SOL    HW160670   6.136   7.038   7.260 -0.5868  1.3452 -0.2391
19743SOL    HW260671   6.161   6.976   7.396 -2.5387 -2.3435 -1.4386
19744SOL     OW60672   2.321   2.064   6.346  0.3305  0.1634  0.5859
19744SOL    HW160673   2.401   2.024   6.380  2.0839  1.6189 -1.5253
19744SOL    HW260674   2.341   2.083   6.254 -2.9401 -0.6112 -0.4119
19745SOL     OW60675   7.454   0.872  11.080  0.2684  0.0367 -0.0615
19745SOL    HW160676   7.417   0.784  11.085  0.3170 -0.0983 -1.6392
19745SOL    HW260677   7.445   0.897  10.988 -0.2447  1.9019  0.4537
19746SOL     OW60678   3.350   2.532   3.978 -0.1363  0.5512 -0.1434
19746SOL    HW160679   3.281   2.466   3.987  0.2782  0.1468  0.1360
19746SOL    HW260680   3.379   2.524   3.887 -1.1593  1.4380 -0.5607
19747SOL     OW60681   4.780   5.083  10.084  0.4077  0.6699  0.1214
19747SOL    HW160682   4.744   5.171  10.094 -0.8883  0.4503 -1.9541
19747SOL    HW260683   4.762   5.040  10.168 -0.7853  1.7629  0.4553
19748SOL     OW60684   0.826   6.621   0.515 -0.0852  0.2679  0.1203
19748SOL    HW160685   0.755   6.611   0.580 -0.1093  0.3739  0.1096
19748SOL    HW260686   0.901   6.652   0.566  0.3174 -1.0265  0.3528
19749SOL     OW60687   1.557   1.777   7.373 -0.1502  0.0715  0.0124
19749SOL    HW160688   1.653   1.775   7.376 -0.0706  1.0892 -1.2256
19749SOL    HW260689   1.535   1.746   7.286 -0.8176  2.1233 -0.6089
19750SOL     OW60690   1.979   7.355   8.044 -0.4588  0.1204 -0.1833
19750SOL    HW160691   1.951   7.424   7.984 -1.2160 -0.4586 -0.5019
19750SOL    HW260692   1.898   7.318   8.079 -0.0712  1.3529  2.2783
19751SOL     OW60693   2.542   4.741  12.211 -0.1696  0.3456  0.3931
19751SOL    HW160694   2.468   4.797  12.235 -0.3841  0.9278 -1.4808
19751SOL    HW260695   2.599   4.797  12.159  1.3869 -0.2359  1.3725
19752SOL     OW60696   3.296   6.585  11.154  0.0321  0.2799 -0.5864
19752SOL    HW160697   3.287   6.555  11.063  0.6323  1.3340 -1.0162
19752SOL    HW260698   3.391   6.592  11.167 -0.0314 -0.3169  0.2923
19753SOL     OW60699   2.849   6.575   0.984 -0.6524 -0.2055  0.0778
19753SOL    HW160700   2.879   6.485   0.972 -0.3634 -0.3370  1.5122
19753SOL    HW260701   2.914   6.629   0.940 -0.3325 -0.6649 -0.0119
19754SOL     OW60702   4.866   4.961  12.345  0.2704 -0.0676 -0.1841
19754SOL    HW160703   4.795   4.925  12.398  1.1187  2.0454  2.5804
19754SOL    HW260704   4.834   5.046  12.316  1.0504  0.2064 -0.2784
19755SOL     OW60705   0.909   3.407   9.126  0.3411  0.8421 -0.2640
19755SOL    HW160706   0.996   3.415   9.086  1.3901 -1.5910  1.3074
19755SOL    HW260707   0.856   3.362   9.060  0.8925  0.4537 -0.4488
19756SOL     OW60708   7.697   1.888   5.759 -0.0387  0.5535  0.4624
19756SOL    HW160709   7.754   1.817   5.729  0.6192  1.1783  0.2044
19756SOL    HW260710   7.689   1.874   5.853  0.1703  0.1886  0.4277
19757SOL     OW60711   0.394   4.148   6.429  0.2945 -0.0870  0.7589
19757SOL    HW160712   0.416   4.076   6.370 -0.6838  1.0993 -1.1811
19757SOL    HW260713   0.450   4.135   6.506  0.7227 -2.4099  0.1140
19758SOL     OW60714   1.876   2.826   0.796 -0.2029  0.2900  0.5212
19758SOL    HW160715   1.947   2.772   0.831  0.4047 -0.1334 -1.2794
19758SOL    HW260716   1.873   2.804   0.703 -1.7277  1.3999  0.2829
19759SOL     OW60717   5.095   2.634   0.642 -0.0362 -0.0497  0.0195
19759SOL    HW160718   5.091   2.603   0.733 -0.6593  0.6167  0.2397
19759SOL    HW260719   5.125   2.559   0.592 -0.4830 -0.6776  0.6707
19760SOL     OW60720   7.315   0.008   5.584 -0.1663 -0.0545  0.0578
19760SOL    HW160721   7.310   0.010   5.489  2.0576  2.1876 -0.1096
19760SOL    HW260722   7.401  -0.028   5.603 -0.9305 -1.3216  1.2881
19761SOL     OW60723   1.925   7.254   6.905 -0.0758 -0.0270 -0.0577
19761SOL    HW160724   1.926   7.276   6.998  0.2266  0.9711 -0.2854
19761SOL    HW260725   1.899   7.336   6.861  0.2139 -0.3644 -0.8803
19762SOL     OW60726   7.129   6.418   4.737 -0.0416  0.3835 -0.2042
19762SOL    HW160727   7.069   6.422   4.811 -0.8041 -1.5308 -0.6640
19762SOL    HW260728   7.073   6.424   4.660  0.4207 -0.5399 -0.6358
19763SOL     OW60729   4.306   2.238   5.444  0.1094  0.6478  0.2737
19763SOL    HW160730   4.335   2.310   5.389  0.0416  0.7871  0.4206
19763SOL    HW260731   4.211   2.236   5.433  0.1301  0.4675  0.1298
19764SOL     OW60732   1.272   1.384   2.036  0.8923  0.5608  1.1112
19764SOL    HW160733   1.251   1.312   2.096  0.6915  0.7876  1.3163
19764SOL    HW260734   1.195   1.391   1.979  0.8002  0.7866  1.2628
19765SOL     OW60735   0.150   5.530  10.184 -0.3444 -0.2274  0.2062
19765SOL    HW160736   0.156   5.571  10.270  0.0588  3.1386 -1.2435
19765SOL    HW260737   0.241   5.523  10.155 -0.5439  1.6177 -1.0769
19766SOL     OW60738   0.156   3.087  11.144  0.0808 -0.4526  0.2286
19766SOL    HW160739   0.070   3.120  11.117  0.1501  0.4437  1.0333
19766SOL    HW260740   0.149   2.992  11.138 -0.9268 -0.3824  0.1652
19767SOL     OW60741   6.274   2.410  10.787  0.1597  0.2426  0.1640
19767SOL    HW160742   6.321   2.457  10.717 -0.9582  1.1293 -0.0172
19767SOL    HW260743   6.274   2.319  10.758  0.4905  0.4590 -0.5595
19768SOL     OW60744   0.142   7.491   8.260 -0.4855  0.3818 -0.2440
19768SOL    HW160745   0.068   7.548   8.240 -0.9956  0.1277  0.8714
19768SOL    HW260746   0.108   7.428   8.323  0.2403 -0.7764 -0.9565
19769SOL     OW60747   7.655   3.554   6.399 -0.2341 -0.3470 -0.3705
19769SOL    HW160748   7.685   3.465   6.418 -0.7388 -0.0741  2.1127
19769SOL    HW260749   7.688   3.573   6.312 -0.5708 -3.1518 -1.1956
19770SOL     OW60750   5.122   4.721   5.272  0.2878 -0.4725 -0.6467
19770SOL    HW160751   5.047   4.665   5.255 -0.3469  0.3881 -0.7748
19770SOL    HW260752   5.194   4.681   5.222  0.0598 -1.5926 -0.1038
19771SOL     OW60753   2.401   6.236  11.638 -0.2068 -0.2973  0.3285
19771SOL    HW160754   2.471   6.290  11.601 -1.5503  1.0272 -0.3895
19771SOL    HW260755   2.409   6.249  11.733 -0.8272  1.6469  0.1515
19772SOL     OW60756   2.004   7.645   5.141 -0.3374 -0.0743 -0.0651
19772SOL    HW160757   1.924   7.596   5.123 -0.1754 -0.3750  0.0217
19772SOL    HW260758   2.075   7.584   5.121 -0.1102  0.4026 -0.7757
19773SOL     OW60759   0.880   4.218   1.337  0.0550  1.0432 -0.0883
19773SOL    HW160760   0.875   4.265   1.254 -0.5805 -0.4275 -0.9174
19773SOL    HW260761   0.836   4.134   1.320  1.6398 -0.1049  1.1526
19774SOL     OW60762   3.077   6.725   7.648 -0.0289 -0.4311 -0.3282
19774SOL    HW160763   3.157   6.727   7.702  0.8712 -1.9733 -1.5088
19774SOL    HW260764   3.006   6.733   7.711  1.0281 -0.3495  0.9063
19775SOL     OW60765   4.511   1.630   8.955  0.1670  0.7146 -0.2945
19775SOL    HW160766   4.464   1.550   8.977 -0.3207  0.8259 -0.8874
19775SOL    HW260767   4.461   1.668   8.883  1.0158  0.9851 -0.7609
19776SOL     OW60768   7.579   4.982   3.814  0.2075 -0.3551 -0.2051
19776SOL    HW160769   7.573   4.902   3.866  1.5069 -2.5329 -3.1319
19776SOL    HW260770   7.660   5.023   3.843  1.5962 -2.2093 -1.2892
19777SOL     OW60771   5.264   2.139   3.324  0.4796 -0.5538 -0.3727
19777SOL    HW160772   5.207   2.170   3.394  0.1885 -0.2854 -0.7210
19777SOL    HW260773   5.340   2.103   3.369 -0.5522 -2.1529  0.1695
19778SOL     OW60774   4.922   6.287   5.939  0.5287 -0.4226 -0.0342
19778SOL    HW160775   4.843   6.329   5.905  1.3702  0.8595 -0.4715
19778SOL    HW260776   4.960   6.243   5.863  0.9394  0.1014 -0.1377
19779SOL     OW60777   4.553   3.203  11.312  0.2019 -0.2556  0.2860
19779SOL    HW160778   4.629   3.228  11.364  0.8290  1.3695 -1.3027
19779SOL    HW260779   4.560   3.256  11.233 -1.8081 -1.1496 -0.5528
19780SOL     OW60780   6.906   4.701   8.574  0.0020  0.4206  0.5680
19780SOL    HW160781   7.001   4.704   8.587  0.3067  4.2250 -1.1831
19780SOL    HW260782   6.870   4.703   8.662  1.6294  1.8512  1.2658
19781SOL     OW60783   7.765   4.633   0.120 -0.1499  0.4426 -0.0473
19781SOL    HW160784   7.695   4.686   0.157 -1.4248 -1.7719  0.9512
19781SOL    HW260785   7.784   4.673   0.036 -2.3773  1.3656 -0.1781
19782SOL     OW60786   6.676   2.985   8.683  0.1420 -0.1111  0.0308
19782SOL    HW160787   6.651   3.027   8.765  0.3206 -0.7374  0.4145
19782SOL    HW260788   6.627   3.032   8.616  0.4187  0.7761  0.4313
19783SOL     OW60789   5.226   1.166   3.363 -0.4996 -0.0453  0.4735
19783SOL    HW160790   5.136   1.155   3.332  0.2610  0.7969 -2.2265
19783SOL    HW260791   5.231   1.109   3.440 -3.0007 -1.0043  0.0211
19784SOL     OW60792   0.780   2.737   7.762 -0.4730 -0.9233  0.0548
19784SOL    HW160793   0.847   2.694   7.814  0.7899 -0.0093 -0.7369
19784SOL    HW260794   0.797   2.709   7.672 -1.3042 -0.8542 -0.1387
19785SOL     OW60795   0.338   2.441  11.372  0.2582 -0.5711 -0.2795
19785SOL    HW160796   0.429   2.462  11.351  0.7968 -0.9258  1.5078
19785SOL    HW260797   0.321   2.489  11.454 -0.6188 -1.7951  0.2787
19786SOL     OW60798   5.198   0.701   0.177 -0.2885  0.0199  0.1747
19786SOL    HW160799   5.153   0.706   0.093 -1.2271 -0.7778  0.6162
19786SOL    HW260800   5.232   0.790   0.192 -1.5967  0.6056 -0.2388
19787SOL     OW60801   1.913   4.520  11.468 -0.3985 -0.4919 -0.5197
19787SOL    HW160802   1.999   4.483  11.487 -0.5259 -0.3926  0.2704
19787SOL    HW260803   1.932   4.605  11.428 -0.1303 -0.6932 -0.8346
19788SOL     OW60804   3.666   6.067   4.314 -0.1654 -0.3902  0.1671
19788SOL    HW160805   3.646   6.129   4.384  1.6054  1.2186 -0.6514
19788SOL    HW260806   3.715   5.997   4.356 -0.5585 -0.2844  0.8045
19789SOL     OW60807   5.428   2.436   5.893 -0.2888 -0.4548  0.1517
19789SOL    HW160808   5.490   2.493   5.938 -0.9414  0.7301 -0.4002
19789SOL    HW260809   5.462   2.429   5.804 -0.7406 -0.1120 -0.0500
19790SOL     OW60810   4.506   1.560   3.842  0.1509  0.6382 -0.3422
19790SOL    HW160811   4.420   1.602   3.843 -1.0312 -1.6597  0.2425
19790SOL    HW260812   4.496   1.484   3.900  2.4241  0.0016 -0.7116
19791SOL     OW60813   0.868   7.884   6.229 -0.4587  0.0539  0.0918
19791SOL    HW160814   0.895   7.957   6.174 -0.3013 -0.2649 -0.2575
19791SOL    HW260815   0.857   7.811   6.168  0.2363 -0.4385  0.5435
19792SOL     OW60816   2.832   3.335  10.073  0.2434 -0.4343 -0.2605
19792SOL    HW160817   2.869   3.423  10.077 -1.6856  0.3691  2.1002
19792SOL    HW260818   2.744   3.348  10.038 -0.2228 -1.3269  0.5364
19793SOL     OW60819   5.782   3.388   0.772 -0.2980  0.0800 -0.9114
19793SOL    HW160820   5.736   3.311   0.804 -1.5775  0.6194 -1.3973
19793SOL    HW260821   5.846   3.408   0.841 -2.5933  0.8859  1.1190
19794SOL     OW60822   7.083   6.544  11.369  0.5036  0.0559  0.1763
19794SOL    HW160823   7.127   6.475  11.419  1.6017  2.0290  2.1383
19794SOL    HW260824   7.152   6.581  11.314  1.1519  2.3975  2.4005
19795SOL     OW60825   4.394   5.993   5.313  0.2736  0.5067 -0.3311
19795SOL    HW160826   4.436   5.996   5.227  0.3092 -2.2674 -0.4848
19795SOL    HW260827   4.466   5.997   5.375  0.5892 -1.1911 -0.5416
19796SOL     OW60828   7.037   6.864   3.330  0.0958 -0.2110 -0.0766
19796SOL    HW160829   7.122   6.844   3.293 -0.4244 -0.9102 -0.9255
19796SOL    HW260830   7.004   6.780   3.363 -1.1358 -0.3836 -1.6314
19797SOL     OW60831   1.316   1.260   6.619 -0.7238 -0.3756  0.1053
19797SOL    HW160832   1.296   1.249   6.712  2.5134 -0.7947  0.8582
19797SOL    HW260833   1.336   1.172   6.588 -1.7015 -0.2280 -1.0263
19798SOL     OW60834   1.091   1.779   8.443  0.6489 -0.1189  0.0202
19798SOL    HW160835   1.098   1.772   8.348 -0.4561  1.7358 -0.2599
19798SOL    HW260836   1.126   1.697   8.476 -0.7869 -1.7040 -2.0814
19799SOL     OW60837   0.102   6.360   4.044 -0.1330 -0.3341  0.0084
19799SOL    HW160838   0.033   6.383   3.982 -0.6501  0.1392  0.7398
19799SOL    HW260839   0.091   6.423   4.116 -0.4729 -1.7613  1.2488
19800SOL     OW60840   1.755   3.016  10.997 -0.4257  0.0283  0.5111
19800SOL    HW160841   1.714   3.076  11.060 -0.6501 -0.4073  0.7820
19800SOL    HW260842   1.843   3.001  11.032 -0.6663 -0.4840  0.9106
19801SOL     OW60843   2.297   4.924   0.950 -0.2850 -0.4884 -0.1011
19801SOL    HW160844   2.277   4.897   1.040 -1.5708 -0.9696 -0.5142
19801SOL    HW260845   2.327   5.015   0.958  1.4237 -1.0917  1.0058
19802SOL     OW60846   3.120   2.778   4.543 -0.3051  0.2091  0.3466
19802SOL    HW160847   3.187   2.771   4.475 -1.3583  1.0971 -0.8449
19802SOL    HW260848   3.096   2.871   4.544  0.1895  0.3604  2.4781
19803SOL     OW60849   2.792   7.841   8.524  0.2636 -0.8326 -0.1670
19803SOL    HW160850   2.818   7.872   8.438 -0.8320 -1.6461 -0.8110
19803SOL    HW260851   2.712   7.890   8.545  0.7183 -0.3740  0.5606
19804SOL     OW60852   5.301   3.532  11.185  0.2226 -0.1559 -0.1383
19804SOL    HW160853   5.276   3.471  11.117  1.7998 -0.7396 -0.2353
19804SOL    HW260854   5.261   3.497  11.265  0.5007 -0.9204 -0.3243
19805SOL     OW60855   5.742   6.716   9.518  0.6641  0.1967 -0.2016
19805SOL    HW160856   5.824   6.684   9.478  1.0792  1.3264 -0.2919
19805SOL    HW260857   5.674   6.692   9.455  1.2032  1.1565 -1.1822
19806SOL     OW60858   3.677   7.496   2.522  0.3442 -0.8522 -0.0594
19806SOL    HW160859   3.680   7.589   2.499 -0.6149 -0.3362  1.7170
19806SOL    HW260860   3.628   7.455   2.450  0.5590  0.0545 -0.7337
19807SOL     OW60861   0.236   0.551   3.995 -0.0360 -0.0518 -0.9030
19807SOL    HW160862   0.298   0.483   3.967 -1.7182 -2.0603 -0.0511
19807SOL    HW260863   0.291   0.619   4.033  1.7094 -1.3061 -1.0317
19808SOL     OW60864   7.287   1.846   1.425 -0.1594 -0.8145 -0.3056
19808SOL    HW160865   7.251   1.905   1.359  2.0804 -1.4596 -2.2194
19808SOL    HW260866   7.260   1.884   1.509 -4.1512 -0.6098 -1.4758
19809SOL     OW60867   3.999   5.377   6.526  0.3931  0.5570 -0.4722
19809SOL    HW160868   4.001   5.455   6.581  0.9631 -0.1061  0.4810
19809SOL    HW260869   4.068   5.321   6.562 -0.4265 -0.6588 -0.7296
19810SOL     OW60870   2.950   4.493   0.683  0.3255  0.2157 -0.3416
19810SOL    HW160871   2.877   4.463   0.738  0.4282 -0.5378 -0.6000
19810SOL    HW260872   2.955   4.587   0.699 -0.8326  0.3118 -0.4576
19811SOL     OW60873   4.765   6.924   6.017  0.0318  0.5894  0.0179
19811SOL    HW160874   4.834   6.945   5.954  1.2462  2.1460  1.7568
19811SOL    HW260875   4.726   6.843   5.983  1.6714  0.4930 -1.8539
19812SOL     OW60876   4.021   2.296  10.610  0.2563  0.2113 -0.9454
19812SOL    HW160877   3.947   2.353  10.591 -0.2601 -0.0586  0.1781
19812SOL    HW260878   4.071   2.342  10.678  0.0424 -0.4792 -0.3023
19813SOL     OW60879   3.262   6.283   5.984  0.3679  0.0860  0.0017
19813SOL    HW160880   3.277   6.373   6.013 -0.6220  0.4384 -0.4898
19813SOL    HW260881   3.189   6.291   5.922  0.5664 -1.0011 -0.3864
19814SOL     OW60882   7.335   3.518   7.223  0.4252 -0.0433 -0.4126
19814SOL    HW160883   7.404   3.582   7.206  0.1642  0.2802 -0.2826
19814SOL    HW260884   7.254   3.565   7.201  0.3615 -1.2463 -3.1327
19815SOL     OW60885   0.427   5.717   4.280  0.2748  0.0827 -0.1755
19815SOL    HW160886   0.496   5.676   4.228  0.6385  0.0316  0.3373
19815SOL    HW260887   0.385   5.644   4.326 -0.3527  0.0747 -0.7540
19816SOL     OW60888   1.861   4.714  11.805  0.2732 -0.4639 -0.1190
19816SOL    HW160889   1.797   4.648  11.780  0.0595 -0.2139 -0.2402
19816SOL    HW260890   1.809   4.787  11.838  0.4204  0.2698 -1.4310
19817SOL     OW60891   7.341   0.270  11.762 -0.2439 -0.3099  0.0463
19817SOL    HW160892   7.363   0.189  11.716 -0.5947 -1.1114  1.2453
19817SOL    HW260893   7.406   0.276  11.832 -0.4718  0.2385  0.2150
19818SOL     OW60894   5.924   0.836  10.684 -0.0134 -0.2536 -0.0206
19818SOL    HW160895   5.997   0.800  10.734  0.9317  1.2655 -0.2713
19818SOL    HW260896   5.856   0.769  10.691 -0.0583 -0.0379  3.5456
19819SOL     OW60897   7.207   6.471   5.882 -0.0134  0.2049  0.6588
19819SOL    HW160898   7.221   6.376   5.880  0.9376  0.3098  1.4962
19819SOL    HW260899   7.152   6.485   5.959 -0.7037  0.2747  0.1563
19820SOL     OW60900   3.935   6.396   9.929  0.1193 -0.0504  0.4112
19820SOL    HW160901   3.876   6.457   9.973 -0.7442 -0.7069  0.1692
19820SOL    HW260902   3.897   6.384   9.842  1.2994  0.4954 -0.2142
19821SOL     OW60903   7.591   4.119  10.072 -0.0329  0.2427  0.0718
19821SOL    HW160904   7.583   4.069  10.154 -2.1170  0.3714  0.0004
19821SOL    HW260905   7.631   4.057  10.011 -0.1975 -0.4815  0.6769
19822SOL     OW60906   7.518   0.185   9.406 -0.0388 -0.1533 -0.0177
19822SOL    HW160907   7.499   0.261   9.351 -0.5486 -0.5992 -0.4784
19822SOL    HW260908   7.614   0.178   9.405  0.0213  0.5976  0.2000
19823SOL     OW60909   6.172   0.216   5.355  0.0388  0.4607  0.2432
19823SOL    HW160910   6.211   0.133   5.383  0.0654  0.3481 -0.1270
19823SOL    HW260911   6.114   0.192   5.283 -1.6710  0.4346  1.5502
19824SOL     OW60912   6.149   4.558  10.692  0.3441 -0.3226  0.4652
19824SOL    HW160913   6.170   4.574  10.600 -1.5310  1.5310  0.3014
19824SOL    HW260914   6.087   4.485  10.691  0.6636 -0.5949  0.3136
19825SOL     OW60915   0.984   3.403   2.315 -0.4636  0.1549  0.2664
19825SOL    HW160916   0.991   3.308   2.320 -0.0065  0.2021  0.5850
19825SOL    HW260917   0.997   3.423   2.222 -0.4767 -0.0848  0.2128
19826SOL     OW60918   7.006   1.715   0.524  0.2829  0.2964 -0.0925
19826SOL    HW160919   6.985   1.756   0.440  1.8192  1.2250 -0.0683
19826SOL    HW260920   7.052   1.634   0.500 -0.0698  0.1157 -0.1523
19827SOL     OW60921   2.181   5.167  10.006  0.7887 -0.6944 -0.4617
19827SOL    HW160922   2.112   5.233  10.013  1.2189 -0.1386 -1.2874
19827SOL    HW260923   2.252   5.200  10.060  1.1952 -0.2162 -1.2718
19828SOL     OW60924   2.866   5.077   4.308  0.0595  0.5113  0.2782
19828SOL    HW160925   2.907   5.031   4.382  0.7202 -0.5665 -0.7148
19828SOL    HW260926   2.818   5.149   4.348  0.8843  0.3102  1.7131
19829SOL     OW60927   3.497   6.569   2.291 -0.2839 -0.3012 -0.6677
19829SOL    HW160928   3.526   6.522   2.369 -0.1316 -0.7021 -0.9643
19829SOL    HW260929   3.550   6.533   2.220  0.3190  0.8075 -0.7950
19830SOL     OW60930   4.696   0.048   1.715  0.2822  0.1265 -0.2404
19830SOL    HW160931   4.791   0.060   1.710  0.0910  2.1817 -0.0539
19830SOL    HW260932   4.679  -0.030   1.663  2.0687 -0.2263 -0.3672
19831SOL     OW60933   3.393   3.236   3.313  0.1298  0.3232 -0.1311
19831SOL    HW160934   3.433   3.323   3.307  2.8834 -0.8824 -0.8464
19831SOL    HW260935   3.467   3.175   3.308 -1.6614 -2.0840  0.6934
19832SOL     OW60936   5.483   3.465  11.698 -0.6859  0.2546 -0.0447
19832SOL    HW160937   5.488   3.423  11.612  2.0920  0.7223 -0.2121
19832SOL    HW260938   5.574   3.483  11.721 -1.3637  0.4794  2.8635
19833SOL     OW60939   5.727   4.723   8.631 -0.0953  0.0515  0.5254
19833SOL    HW160940   5.681   4.721   8.547  0.5540  1.5239  0.1041
19833SOL    HW260941   5.715   4.635   8.667 -3.7610  0.4452  0.7378
19834SOL     OW60942   4.849   1.454   5.634  0.4753  0.3979 -0.0469
19834SOL    HW160943   4.883   1.479   5.720 -1.4599  0.5112  0.7291
19834SOL    HW260944   4.879   1.364   5.622  0.2580  0.1752  1.0150
19835SOL     OW60945   0.127   4.065   6.317 -0.0596  0.0959  0.4431
19835SOL    HW160946   0.090   4.118   6.247 -0.4241  0.7507  1.1220
19835SOL    HW260947   0.208   4.110   6.341 -0.0004 -0.0572  0.5290
19836SOL     OW60948   5.918   7.306   1.397  0.3554 -0.0800  0.3174
19836SOL    HW160949   5.978   7.286   1.469  1.1358  2.5419  0.4948
19836SOL    HW260950   5.932   7.236   1.334  0.1076 -2.1148  2.4111
19837SOL     OW60951   5.606   0.186  10.140  0.5246 -0.7178 -0.0613
19837SOL    HW160952   5.549   0.111  10.124 -0.7065  0.2279 -0.2112
19837SOL    HW260953   5.550   0.263  10.127  2.1645  0.2946 -1.5531
19838SOL     OW60954   1.684   1.439   1.505  0.1389  0.1180 -0.1607
19838SOL    HW160955   1.615   1.373   1.510 -0.3845  0.6700  0.2100
19838SOL    HW260956   1.765   1.390   1.495 -0.2207 -0.5895  0.3209
19839SOL     OW60957   6.679   3.078   6.081  0.0492  0.0301  0.2488
19839SOL    HW160958   6.612   3.146   6.073 -0.3278 -0.2001  1.2830
19839SOL    HW260959   6.728   3.101   6.160  1.4733  0.4101 -0.6999
19840SOL     OW60960   2.399   1.193   2.455 -0.1585 -0.8333  0.5803
19840SOL    HW160961   2.478   1.139   2.446  0.4745 -0.0298  1.2202
19840SOL    HW260962   2.430   1.276   2.490 -1.0898  0.0422 -0.5844
19841SOL     OW60963   4.172   6.549   1.801 -0.3208 -0.1637 -0.7154
19841SOL    HW160964   4.221   6.469   1.819 -2.0511 -1.9205 -3.1595
19841SOL    HW260965   4.234   6.606   1.757  0.9181 -0.1183  0.9782
19842SOL     OW60966   6.658   1.882   7.043  0.3035 -0.4170 -0.2012
19842SOL    HW160967   6.658   1.897   7.138  0.8518  1.9475 -0.5261
19842SOL    HW260968   6.566   1.886   7.018 -0.1778 -3.8156  0.5229
19843SOL     OW60969   2.257   0.988   6.042 -0.0065 -0.5180 -0.1525
19843SOL    HW160970   2.185   0.995   5.980  0.9401  0.8807 -1.1593
19843SOL    HW260971   2.222   1.024   6.124  0.0858  2.0157 -1.1531
19844SOL     OW60972   4.485   7.224  12.302 -0.7701 -0.5267  0.2854
19844SOL    HW160973   4.547   7.205  12.231  0.3334 -0.3908  1.1922
19844SOL    HW260974   4.496   7.318  12.318 -1.6897 -0.3611  0.0356
19845SOL     OW60975   7.780   5.045  11.507 -0.5037  0.5127  0.4167
19845SOL    HW160976   7.734   4.963  11.492  0.7455 -0.0665 -0.2971
19845SOL    HW260977   7.835   5.028  11.584  0.3801  0.4009 -0.2281
19846SOL     OW60978   5.885   6.366   4.050  0.2105 -0.3104 -0.0416
19846SOL    HW160979   5.804   6.350   4.000  0.2518 -2.4567  0.4864
19846SOL    HW260980   5.946   6.400   3.985 -1.6880  3.7840 -0.0206
19847SOL     OW60981   3.799   0.777  12.014 -0.4653  0.6018  0.1060
19847SOL    HW160982   3.746   0.794  11.937 -0.3832 -0.0870 -0.1010
19847SOL    HW260983   3.737   0.781  12.087 -1.0495 -1.3499 -0.2285
19848SOL     OW60984   4.406   3.755  11.435 -0.1196  0.3584  0.0599
19848SOL    HW160985   4.394   3.667  11.470 -0.2714  1.0982  1.9959
19848SOL    HW260986   4.360   3.754  11.351 -0.9800 -1.1345  0.5110
19849SOL     OW60987   3.625   1.832   5.990 -0.3242  0.1208  0.6791
19849SOL    HW160988   3.541   1.862   6.026 -0.5177 -0.9054  1.1285
19849SOL    HW260989   3.649   1.757   6.045  0.9312  0.4452  0.5937
19850SOL     OW60990   4.119   7.894   1.771 -0.0160  0.6376  0.0838
19850SOL    HW160991   4.138   7.987   1.776  0.6126  0.5298 -0.2601
19850SOL    HW260992   4.120   7.874   1.678 -0.0668  0.2712  0.1609
19851SOL     OW60993   1.308   3.204   5.092  0.0698 -0.1109  0.7081
19851SOL    HW160994   1.328   3.278   5.149 -0.1378  0.6625 -0.1767
19851SOL    HW260995   1.234   3.235   5.039  0.2279 -0.8116  0.0581
19852SOL     OW60996   6.790   7.568   1.594  1.2547 -0.3545 -0.5806
19852SOL    HW160997   6.817   7.488   1.550 -0.1699 -1.5150  0.5598
19852SOL    HW260998   6.844   7.572   1.673  1.4028 -0.1165 -0.6911
19853SOL     OW60999   5.151   3.798  10.843  0.7158  0.0095 -0.2129
19853SOL    HW161000   5.204   3.846  10.906 -0.0600 -0.1826  0.6063
19853SOL    HW261001   5.080   3.859  10.820  1.8460  0.6798 -2.1316
19854SOL     OW61002   7.910   5.186   6.867  0.0703  0.1317  0.7843
19854SOL    HW161003   7.958   5.146   6.939 -1.0023 -1.2370  0.7692
19854SOL    HW261004   7.928   5.280   6.876 -0.3602  0.0699  3.0965
19855SOL     OW61005   6.765   3.823  11.990 -0.2744  0.7586 -0.5527
19855SOL    HW161006   6.703   3.754  12.014  0.2571  0.4578 -0.0232
19855SOL    HW261007   6.783   3.869  12.071  2.8221 -1.3039  0.1162
19856SOL     OW61008   4.255   7.383   6.404  0.4109  0.0523  0.3350
19856SOL    HW161009   4.332   7.428   6.371 -1.0790  0.5611 -2.8360
19856SOL    HW261010   4.191   7.453   6.420  0.0518 -0.4826  1.3503
19857SOL     OW61011   7.259   4.388   6.641 -0.1883  0.5998 -0.1897
19857SOL    HW161012   7.301   4.302   6.645 -1.6079 -0.0671  1.1467
19857SOL    HW261013   7.323   4.447   6.682  1.9934  0.7954 -3.5211
19858SOL     OW61014   6.543   7.377   8.248  0.2954 -0.3176  0.0714
19858SOL    HW161015   6.488   7.339   8.179  1.8596 -3.2486  0.2864
19858SOL    HW261016   6.630   7.383   8.209  0.3191  2.4639  0.3530
19859SOL     OW61017   5.217   4.806   3.986  0.7961  0.1433 -0.2462
19859SOL    HW161018   5.193   4.883   3.935  0.2434  0.7318  0.8543
19859SOL    HW261019   5.139   4.751   3.986  0.8346  0.0869 -0.1518
19860SOL     OW61020   0.374   3.811   4.649  0.2179  0.3653  0.6389
19860SOL    HW161021   0.290   3.809   4.695  0.2219  1.3903  0.7174
19860SOL    HW261022   0.352   3.791   4.558 -0.4745  2.7225  0.2012
19861SOL     OW61023   2.961   0.838  11.960  0.5842  0.4887 -0.0916
19861SOL    HW161024   2.973   0.752  11.919  1.7271 -0.1337  1.4221
19861SOL    HW261025   3.042   0.852  12.009 -0.4160  1.4705  1.3590
19862SOL     OW61026   2.971   3.398   7.796 -0.2608  0.3664 -0.2466
19862SOL    HW161027   2.900   3.350   7.753 -0.2652  0.8092 -0.7370
19862SOL    HW261028   2.945   3.490   7.791 -1.5036  0.3237  2.9295
19863SOL     OW61029   5.799   2.021   9.191  0.1471  0.0806  0.0619
19863SOL    HW161030   5.894   2.029   9.195  0.1064  0.0973  1.1692
19863SOL    HW261031   5.766   2.094   9.243 -0.4808  0.1445 -0.4099
19864SOL     OW61032   1.110   4.314   5.893 -0.0244 -0.3046  0.0484
19864SOL    HW161033   1.035   4.309   5.834  0.2905  4.4160 -1.1409
19864SOL    HW261034   1.186   4.292   5.839 -0.1079  0.1415 -0.2564
19865SOL     OW61035   6.962   2.855   4.764  0.2174  0.1465  0.4596
19865SOL    HW161036   7.022   2.916   4.721  1.9402 -1.4502  0.4673
19865SOL    HW261037   7.013   2.818   4.836 -0.9183 -0.9574  0.7357
19866SOL     OW61038   6.031   0.914  10.431 -0.5827 -0.0717  0.2208
19866SOL    HW161039   5.967   0.893  10.499 -2.3599  0.2257 -1.2555
19866SOL    HW261040   5.984   0.974  10.373  1.2695  0.6098 -0.6254
19867SOL     OW61041   0.689   3.991   7.283  0.2366  0.1160  0.6109
19867SOL    HW161042   0.684   3.935   7.206  0.8908 -0.4691  0.9914
19867SOL    HW261043   0.695   4.080   7.247  1.1751 -0.1952 -0.0231
19868SOL     OW61044   6.962   5.658   8.042  0.7895 -0.3337  0.0246
19868SOL    HW161045   6.867   5.666   8.040  0.8132 -0.0608 -0.0169
19868SOL    HW261046   6.994   5.747   8.054  1.0412 -0.4213  0.0156
19869SOL     OW61047   6.198   3.141   7.019  0.0473 -0.2422  0.9148
19869SOL    HW161048   6.249   3.188   6.953 -0.7104 -0.4527  0.1609
19869SOL    HW261049   6.111   3.181   7.016 -0.3750 -1.1418  0.8378
19870SOL     OW61050   1.741   7.706  11.350 -0.3676  0.1547  0.2863
19870SOL    HW161051   1.792   7.772  11.397 -0.4758 -0.5679  1.4328
19870SOL    HW261052   1.794   7.684  11.274  0.2339  0.6632  0.5530
19871SOL     OW61053   0.367   0.433  12.239 -0.0774 -0.7615 -0.1648
19871SOL    HW161054   0.357   0.516  12.285  0.3234 -0.0287 -1.3461
19871SOL    HW261055   0.423   0.380  12.295  1.5549  0.6145 -0.4374
19872SOL     OW61056   5.569   5.038   3.949  0.2385 -0.0673 -1.0796
19872SOL    HW161057   5.568   5.102   3.879  1.7385  0.5638 -0.5772
19872SOL    HW261058   5.496   5.063   4.006  1.0025  1.4701 -0.7012
19873SOL     OW61059   7.903   0.814   7.533  0.1669 -0.4812 -0.4426
19873SOL    HW161060   7.923   0.821   7.440 -0.3458  1.1382 -0.4464
19873SOL    HW261061   7.976   0.762   7.568 -0.3294 -2.3001 -1.9301
19874SOL     OW61062   3.611   0.905   7.118 -0.4434  0.1526 -0.4274
19874SOL    HW161063   3.610   0.962   7.195 -0.5093 -0.4440  0.0181
19874SOL    HW261064   3.667   0.832   7.142 -0.0457  0.2120 -1.1385
19875SOL     OW61065   5.497   5.754   7.415  0.2320 -0.0222 -0.1386
19875SOL    HW161066   5.432   5.713   7.472  0.8967 -0.0027  0.6460
19875SOL    HW261067   5.575   5.700   7.423  0.8323  0.8645  0.1992
19876SOL     OW61068   1.083   7.140   5.632  0.2824 -0.2321  0.1162
19876SOL    HW161069   1.068   7.129   5.726  0.6321  1.6154  0.4303
19876SOL    HW261070   1.110   7.053   5.602 -0.3700 -0.9930  1.6014
19877SOL     OW61071   2.024   3.085   6.898  0.4614  0.0675 -0.5207
19877SOL    HW161072   2.073   3.134   6.964  0.1765 -0.8077  0.3661
19877SOL    HW261073   1.933   3.113   6.909  0.4148 -0.0709 -0.5403
19878SOL     OW61074   7.740   7.145   1.560  0.1526  0.0310 -0.7680
19878SOL    HW161075   7.823   7.188   1.583 -0.3760  0.1929  0.9587
19878SOL    HW261076   7.721   7.176   1.472  1.1322  1.2619 -0.5789
19879SOL     OW61077   6.654   0.695   6.774 -0.4908 -0.1120  0.6828
19879SOL    HW161078   6.686   0.731   6.691 -1.2683 -0.8047  0.0565
19879SOL    HW261079   6.695   0.609   6.780 -0.4883 -0.0908  0.9902
19880SOL     OW61080   0.749   3.630   7.363 -0.4010  0.0025 -0.0610
19880SOL    HW161081   0.810   3.612   7.292 -0.5904  2.1210 -0.8400
19880SOL    HW261082   0.670   3.581   7.340 -0.4296  0.5882 -1.3170
19881SOL     OW61083   3.413   0.787   6.706 -1.2021  0.4874  0.0669
19881SOL    HW161084   3.404   0.821   6.617  0.8612 -0.1589 -0.4337
19881SOL    HW261085   3.391   0.694   6.698 -1.7852  0.5932  0.4007
19882SOL     OW61086   1.085   5.558   1.706 -0.2418 -0.4092  0.0119
19882SOL    HW161087   1.073   5.571   1.612 -2.0374  1.1398  0.3907
19882SOL    HW261088   1.011   5.502   1.732  0.1296 -0.6605  0.5468
19883SOL     OW61089   7.476   6.464  12.284 -0.0689 -0.6169  0.4506
19883SOL    HW161090   7.462   6.554  12.312 -0.1819  0.1708 -1.9207
19883SOL    HW261091   7.552   6.467  12.226 -0.9324 -1.7641 -0.8181
19884SOL     OW61092   5.751   0.919  12.326  0.0593 -0.1733 -0.2048
19884SOL    HW161093   5.759   0.984  12.396  0.9350 -0.6287  0.1383
19884SOL    HW261094   5.796   0.959  12.252  0.2983 -0.2373 -0.0967
19885SOL     OW61095   7.918   0.523  11.799  0.3395  0.2676 -0.0994
19885SOL    HW161096   7.926   0.428  11.809 -1.1497  0.0427 -0.8767
19885SOL    HW261097   7.983   0.546  11.733 -1.1457 -0.6376 -1.9525
19886SOL     OW61098   2.981   3.230   0.484  0.2713 -0.4057 -0.6322
19886SOL    HW161099   2.969   3.219   0.390 -0.6242 -0.3929 -0.5244
19886SOL    HW261100   2.957   3.145   0.521 -0.8867  0.0468 -0.2975
19887SOL     OW61101   0.045   7.345   2.034 -0.0458  0.2500 -0.7897
19887SOL    HW161102   0.068   7.373   2.123 -0.0035 -1.6077 -0.1719
19887SOL    HW261103   0.111   7.387   1.978 -0.6439  2.2241 -0.0962
19888SOL     OW61104   7.334   0.569   3.925  0.2740 -0.1662  0.2668
19888SOL    HW161105   7.409   0.522   3.890  1.9711  2.5124  0.0324
19888SOL    HW261106   7.277   0.584   3.850 -0.3311 -1.7846  0.3590
19889SOL     OW61107   2.777   3.851   3.913  0.0384  0.9485 -0.2614
19889SOL    HW161108   2.870   3.829   3.914  0.0473  0.8741 -1.4381
19889SOL    HW261109   2.757   3.867   3.821 -0.8785  1.9941  0.0979
19890SOL     OW61110   0.789   0.456   2.189 -0.4243  0.0994 -0.5727
19890SOL    HW161111   0.783   0.475   2.095  2.1690  0.7265 -0.6614
19890SOL    HW261112   0.841   0.527   2.225 -0.7804 -0.5107  1.2401
19891SOL     OW61113   5.194   1.916  11.576 -0.1371  0.2844  0.6522
19891SOL    HW161114   5.148   1.861  11.640  1.9596 -1.2454  0.9410
19891SOL    HW261115   5.249   1.974  11.629  0.0855  0.4273  0.2700
19892SOL     OW61116   5.773   0.360   9.969  0.0350 -0.0605 -0.6943
19892SOL    HW161117   5.704   0.360   9.902 -0.4890  2.9013 -0.2801
19892SOL    HW261118   5.747   0.290  10.029 -1.9219  0.1317 -1.2476
19893SOL     OW61119   6.189   5.753   8.298 -0.7087  0.1518 -0.3032
19893SOL    HW161120   6.210   5.791   8.212  0.1168 -2.0056 -1.1343
19893SOL    HW261121   6.094   5.754   8.301 -0.7866 -0.4774 -1.6339
19894SOL     OW61122   0.141   2.467   1.690  0.3103 -0.2633 -0.1708
19894SOL    HW161123   0.144   2.451   1.784 -1.1892  2.9578  0.5798
19894SOL    HW261124   0.048   2.461   1.668  0.1071  2.7147 -0.5482
19895SOL     OW61125   0.621   2.938  12.078 -0.2446  0.5067  0.3330
19895SOL    HW161126   0.670   3.000  12.024  0.7780 -1.4575 -1.1171
19895SOL    HW261127   0.640   2.964  12.168  2.3597  0.6921 -0.1869
19896SOL     OW61128   0.457   4.182   7.906  0.0611 -0.4684 -0.0878
19896SOL    HW161129   0.464   4.164   7.812 -0.1239  0.8379 -0.3752
19896SOL    HW261130   0.466   4.097   7.948 -1.9159 -1.3937 -1.3901
19897SOL     OW61131   6.303   6.593   7.972 -0.0842 -0.8044 -0.0562
19897SOL    HW161132   6.300   6.539   8.051 -0.7242 -1.8964 -0.8175
19897SOL    HW261133   6.212   6.603   7.945  0.2130 -2.2112 -1.8124
19898SOL     OW61134   1.559   4.517   1.140 -0.3815 -0.0515 -0.2647
19898SOL    HW161135   1.513   4.554   1.215 -1.4211 -0.9971 -0.4041
19898SOL    HW261136   1.516   4.557   1.064  0.9523  1.2331 -0.3788
19899SOL     OW61137   3.678   1.089  10.502 -0.2476  0.0914 -0.8387
19899SOL    HW161138   3.620   1.063  10.430 -0.7128 -0.2444 -0.3547
19899SOL    HW261139   3.745   1.144  10.461 -1.1166  0.7915 -1.3565
19900SOL     OW61140   2.298   4.506   5.627  0.4798 -0.0925 -0.4427
19900SOL    HW161141   2.387   4.530   5.652  0.7830 -0.6529 -0.9487
19900SOL    HW261142   2.258   4.587   5.596  0.5627  0.3175  0.4678
19901SOL     OW61143   4.037   5.892   5.099 -0.4233 -0.1790  0.4693
19901SOL    HW161144   4.120   5.926   5.133 -0.3585 -1.1790  1.3853
19901SOL    HW261145   4.032   5.803   5.134 -0.5816 -1.1315 -1.8408
19902SOL     OW61146   4.682   7.618   9.116 -0.4477  0.0612  0.3314
19902SOL    HW161147   4.595   7.619   9.076 -0.6614  0.9606  0.8192
19902SOL    HW261148   4.730   7.552   9.065 -1.6791 -1.1150  0.6435
19903SOL     OW61149   5.903   1.715   8.176 -0.9322 -0.3249  0.5580
19903SOL    HW161150   5.989   1.683   8.147 -0.4696  0.7818  0.6240
19903SOL    HW261151   5.843   1.689   8.106 -0.0425  1.2469 -0.8853
19904SOL     OW61152   7.475   7.912   7.956 -0.3049  0.3637  0.6204
19904SOL    HW161153   7.546   7.849   7.944 -0.9791 -0.1681 -0.7962
19904SOL    HW261154   7.459   7.912   8.050 -0.9067 -2.3105  0.5912
19905SOL     OW61155   5.318   6.371   1.908 -0.5344 -0.4622  0.5615
19905SOL    HW161156   5.361   6.386   1.992 -1.3614  2.5881  0.5547
19905SOL    HW261157   5.379   6.316   1.859  0.4039 -1.5024  2.7675
19906SOL     OW61158   1.759   3.760   5.443  0.0268  0.2956 -0.5260
19906SOL    HW161159   1.705   3.818   5.389  0.5556  0.9107 -0.4031
19906SOL    HW261160   1.773   3.809   5.524 -0.3009 -0.3940 -0.0406
19907SOL     OW61161   6.011   3.817   0.439  0.2590  0.5182  0.2249
19907SOL    HW161162   5.956   3.891   0.463  1.6953  2.4165 -1.9299
19907SOL    HW261163   5.955   3.763   0.383 -0.8095 -0.0889  1.8309
19908SOL     OW61164   4.167   6.146   9.291  0.6234 -0.4810  0.4024
19908SOL    HW161165   4.244   6.091   9.279  0.3408 -0.9647  0.7445
19908SOL    HW261166   4.193   6.210   9.356  1.6330  1.1326 -1.4792
19909SOL     OW61167   4.905   4.599  10.133 -0.0326  0.3772 -0.8244
19909SOL    HW161168   4.954   4.676  10.102 -0.3095  0.9867  0.1884
19909SOL    HW261169   4.816   4.613  10.100  0.3799 -0.6101 -2.4618
19910SOL     OW61170   4.591   0.923   4.966  0.2726 -0.0695  0.3013
19910SOL    HW161171   4.552   0.844   4.928 -2.8191  1.8115 -0.8469
19910SOL    HW261172   4.637   0.964   4.893 -0.0214  0.2708  0.3050
19911SOL     OW61173   6.253   3.732   3.451 -0.8759  0.1263  0.2869
19911SOL    HW161174   6.305   3.785   3.391  0.7106  0.1520  1.5890
19911SOL    HW261175   6.232   3.653   3.402 -0.5474  0.6046 -0.6408
19912SOL     OW61176   4.104   4.607   3.653  0.6959  0.1402 -0.2565
19912SOL    HW161177   4.187   4.577   3.614  0.8190  0.4271 -0.2147
19912SOL    HW261178   4.120   4.698   3.676 -0.2014  0.7602 -1.8828
19913SOL     OW61179   5.873   1.393   4.019  0.1998 -0.0337  0.2934
19913SOL    HW161180   5.962   1.385   4.054  0.5541  0.3308 -0.5019
19913SOL    HW261181   5.821   1.426   4.092  0.6616 -0.5048  0.8440
19914SOL     OW61182   0.718   6.584   2.429  0.2766 -0.3720  0.3463
19914SOL    HW161183   0.715   6.499   2.473  2.0950  0.1491  1.6057
19914SOL    HW261184   0.811   6.607   2.428  0.0345  0.7730 -1.6495
19915SOL     OW61185   6.942   4.634   0.457  0.3219  0.1725 -0.0181
19915SOL    HW161186   6.926   4.583   0.378  0.8448 -1.0451  0.6362
19915SOL    HW261187   6.861   4.683   0.470 -1.2309 -2.3866  0.6857
19916SOL     OW61188   5.151   4.081  12.212  0.3957  0.3279 -0.9259
19916SOL    HW161189   5.148   3.993  12.250  2.2169  0.0482 -1.3280
19916SOL    HW261190   5.137   4.068  12.119 -1.2660  0.7061 -0.7546
19917SOL     OW61191   5.603   3.021   9.839  0.5254 -0.2930 -0.3574
19917SOL    HW161192   5.666   2.968   9.791  1.2800 -0.2770  0.5783
19917SOL    HW261193   5.639   3.109   9.838  0.5707 -0.2982  0.2546
19918SOL     OW61194   7.376   4.385   8.216  0.4109  0.3974 -0.3503
19918SOL    HW161195   7.438   4.450   8.249  1.2406 -0.8012  0.5043
19918SOL    HW261196   7.331   4.353   8.294 -0.4842  0.4266 -0.8401
19919SOL     OW61197   3.967   7.955  10.868 -0.5875  0.5547  0.2864
19919SOL    HW161198   4.012   7.871  10.862 -1.5963  0.0202  0.0910
19919SOL    HW261199   3.875   7.933  10.874 -0.9597  1.6835 -0.8065
19920SOL     OW61200   4.311   6.414   5.270  0.2797  0.6125 -0.2628
19920SOL    HW161201   4.287   6.359   5.343 -0.8865 -0.3367 -1.3242
19920SOL    HW261202   4.381   6.365   5.225  0.9612  1.1696  0.1653
19921SOL     OW61203   4.684   1.653   1.444 -0.0025  0.3737 -0.4769
19921SOL    HW161204   4.653   1.683   1.358  0.5383  0.6707 -0.5740
19921SOL    HW261205   4.630   1.577   1.464  0.0604  0.1305 -1.2122
19922SOL     OW61206   1.046   3.756   9.392  0.2988  0.1277  0.2963
19922SOL    HW161207   1.057   3.732   9.484  1.6853  0.3148  0.1931
19922SOL    HW261208   1.066   3.676   9.344  0.3926  0.2543  0.1227
19923SOL     OW61209   5.754   6.201   5.809  0.3166  0.0967 -0.3397
19923SOL    HW161210   5.773   6.256   5.732 -1.4208  1.0706 -0.1294
19923SOL    HW261211   5.795   6.247   5.882 -0.7415  0.9295 -0.2360
19924SOL     OW61212   5.068   5.096   7.112  0.3915 -0.2101  0.4086
19924SOL    HW161213   5.039   5.013   7.074  1.6912 -1.6895  2.4753
19924SOL    HW261214   5.144   5.073   7.165  0.6142  2.2699  1.2770
19925SOL     OW61215   3.211   0.821  11.093 -0.2973 -0.3863  0.0840
19925SOL    HW161216   3.142   0.763  11.060  0.2265 -0.7003 -0.4917
19925SOL    HW261217   3.169   0.907  11.101 -1.0019 -0.7709  0.6513
19926SOL     OW61218   2.593   0.261   4.018 -0.1558 -0.0722  0.2358
19926SOL    HW161219   2.621   0.175   4.050 -0.0224 -0.5965 -1.2202
19926SOL    HW261220   2.633   0.269   3.931 -0.0207  1.5487  0.4021
19927SOL     OW61221   4.978   7.704   5.543  0.4382 -0.1302  0.0132
19927SOL    HW161222   5.045   7.771   5.547 -0.1211  0.3602  1.9917
19927SOL    HW261223   5.024   7.626   5.511  0.8314  1.3955 -3.6713
19928SOL     OW61224   1.086   0.937   3.801 -0.0007 -0.1142 -0.2155
19928SOL    HW161225   1.084   0.906   3.891  0.4930 -0.2649 -0.2520
19928SOL    HW261226   0.995   0.935   3.772 -0.2314  0.4222  0.4424
19929SOL     OW61227   7.583   6.669   2.106 -0.0425  0.4554 -0.3548
19929SOL    HW161228   7.508   6.728   2.108  0.6676  1.3546  0.4811
19929SOL    HW261229   7.645   6.711   2.046 -0.3519 -0.5067 -1.3970
19930SOL     OW61230   0.121   4.741   5.576 -0.2766 -0.1678  0.4431
19930SOL    HW161231   0.198   4.791   5.550 -2.3767  1.9774 -2.2738
19930SOL    HW261232   0.130   4.657   5.531  1.1919 -0.6226  1.5072
19931SOL     OW61233   2.475   5.358   2.894 -0.9769 -0.2480  0.1453
19931SOL    HW161234   2.465   5.453   2.905  0.5481  0.0237 -0.6110
19931SOL    HW261235   2.386   5.323   2.906 -1.6937  1.3462 -0.2582
19932SOL     OW61236   1.536   7.193   7.954  0.1403  0.0576  0.1459
19932SOL    HW161237   1.619   7.197   7.906 -0.0313 -2.4110 -0.4986
19932SOL    HW261238   1.468   7.204   7.888 -0.1002  1.4732  0.5872
19933SOL     OW61239   1.807   1.560  12.263  0.0828  0.3827 -0.9812
19933SOL    HW161240   1.724   1.536  12.223 -0.2283 -1.4552  0.6229
19933SOL    HW261241   1.864   1.485  12.246  0.1448 -0.1627  1.3041
19934SOL     OW61242   5.113   4.760   0.866 -0.1640  0.5192  0.2565
19934SOL    HW161243   5.128   4.670   0.837 -1.0825  0.0821  1.0751
19934SOL    HW261244   5.023   4.779   0.841 -0.3605  0.7887  1.1457
19935SOL     OW61245   5.293   6.447   2.667 -0.5683  0.1796  0.0435
19935SOL    HW161246   5.243   6.500   2.605  0.4336  1.3748  0.2078
19935SOL    HW261247   5.338   6.511   2.722  0.3485 -0.8502  0.5285
19936SOL     OW61248   7.493   0.759   3.344 -0.2063  0.3774  0.3321
19936SOL    HW161249   7.430   0.788   3.411 -0.0185  0.5331  0.4446
19936SOL    HW261250   7.569   0.816   3.358  0.0932 -0.0433  0.4235
19937SOL     OW61251   3.404   1.841   4.599  0.7888 -0.0686 -0.3817
19937SOL    HW161252   3.311   1.863   4.603  0.7065 -0.1204 -1.6233
19937SOL    HW261253   3.408   1.747   4.616  0.8245  0.2519  1.6138
19938SOL     OW61254   6.871   0.130   4.053 -0.2044 -0.0925 -0.2897
19938SOL    HW161255   6.805   0.197   4.036 -0.3497 -0.1241  0.1403
19938SOL    HW261256   6.926   0.130   3.974 -0.3284  0.3839 -0.3808
19939SOL     OW61257   2.564   3.050   5.599  0.4566 -0.1996  0.4812
19939SOL    HW161258   2.598   3.130   5.558 -0.8628 -0.4616 -1.2110
19939SOL    HW261259   2.585   3.061   5.692  2.5466  0.9293 -0.0474
19940SOL     OW61260   7.158   0.546   2.685 -0.2646 -0.5132 -0.0849
19940SOL    HW161261   7.200   0.624   2.648 -1.5819  0.3237  0.0952
19940SOL    HW261262   7.132   0.573   2.773 -1.1502 -0.9900 -0.1879
19941SOL     OW61263   6.595   3.612   8.660  0.1765 -0.0871 -0.4168
19941SOL    HW161264   6.557   3.606   8.748 -1.0611 -0.0685 -0.9391
19941SOL    HW261265   6.689   3.599   8.674  0.1378  0.9693  1.0386
19942SOL     OW61266   0.345   4.771   1.000 -0.2370 -0.4915 -0.6227
19942SOL    HW161267   0.251   4.761   0.983 -0.6023  1.7864 -0.1966
19942SOL    HW261268   0.358   4.865   1.012  1.9463 -0.8486  0.3190
19943SOL     OW61269   6.531   2.387   7.590 -0.4721  0.1668 -0.2720
19943SOL    HW161270   6.500   2.389   7.680 -0.9983  0.3996 -0.4524
19943SOL    HW261271   6.516   2.297   7.561  1.7371 -0.5299  0.5503
19944SOL     OW61272   1.051   7.047   0.154  0.6857  0.2225  0.6248
19944SOL    HW161273   1.120   6.996   0.195  1.7637  1.2454  0.1450
19944SOL    HW261274   1.064   7.035   0.060  2.1799  2.7988  0.3979
19945SOL     OW61275   0.591   5.340   8.356  0.5145  0.2259 -0.1044
19945SOL    HW161276   0.581   5.259   8.407  0.0526  0.2115 -0.2092
19945SOL    HW261277   0.508   5.386   8.370 -0.1591 -0.3603 -1.8732
19946SOL     OW61278   1.836   4.864   4.910  0.1945  0.7006  0.1602
19946SOL    HW161279   1.901   4.794   4.913  0.6861  1.0849 -0.8043
19946SOL    HW261280   1.764   4.833   4.965  0.5561 -0.3989  0.0418
19947SOL     OW61281   0.913   3.406  11.828  0.5000  0.5170 -0.2043
19947SOL    HW161282   0.995   3.385  11.874 -0.0994  1.1939  1.2351
19947SOL    HW261283   0.853   3.432  11.898 -0.5953  1.1552 -1.3560
19948SOL     OW61284   3.799   5.799  12.167  0.0185 -0.0773  0.2903
19948SOL    HW161285   3.878   5.782  12.218  0.5312  1.5606  0.1234
19948SOL    HW261286   3.726   5.782  12.227  0.5716  0.3196  1.0810
19949SOL     OW61287   5.617   2.416   1.125 -0.3473  0.2097  0.1593
19949SOL    HW161288   5.577   2.480   1.184 -1.5478 -0.8552  0.5643
19949SOL    HW261289   5.543   2.373   1.082  0.4378 -0.5446 -0.4822
19950SOL     OW61290   0.028   3.137   9.507 -0.0561  0.6603 -0.5694
19950SOL    HW161291   0.112   3.164   9.469 -0.6324  2.2136 -0.8090
19950SOL    HW261292  -0.038   3.183   9.455 -1.0025  0.3775  0.3428
19951SOL     OW61293   5.584   6.702   4.512 -1.0187  0.1247  0.0598
19951SOL    HW161294   5.601   6.772   4.574 -0.8270 -0.2338  0.4150
19951SOL    HW261295   5.631   6.627   4.547 -1.6442 -0.3231 -0.0445
19952SOL     OW61296   1.895   6.132   6.543 -0.2174 -0.4818 -0.3793
19952SOL    HW161297   1.837   6.195   6.584 -1.4824 -1.8730  0.0577
19952SOL    HW261298   1.837   6.072   6.497  0.9822 -0.9525 -1.3369
19953SOL     OW61299   6.396   6.833   2.469  0.2930 -0.0705  0.6148
19953SOL    HW161300   6.441   6.882   2.538  0.1682 -0.1883  0.7798
19953SOL    HW261301   6.339   6.771   2.516 -0.9368  0.8747  0.4163
19954SOL     OW61302   6.283   2.300   3.780 -0.0485 -0.0882 -0.0302
19954SOL    HW161303   6.260   2.261   3.865 -1.1532 -0.4589 -0.4870
19954SOL    HW261304   6.374   2.275   3.767  0.5680  1.0732  1.6505
19955SOL     OW61305   0.925   1.162   8.582 -0.3268 -0.7201  0.0826
19955SOL    HW161306   0.968   1.206   8.509  0.1219  0.3871  0.9793
19955SOL    HW261307   0.835   1.148   8.553 -0.3752  0.4559 -0.3600
19956SOL     OW61308   4.821   3.736  10.648 -0.4990 -0.0187  0.0581
19956SOL    HW161309   4.736   3.766  10.614 -0.4076  0.6757  0.4304
19956SOL    HW261310   4.865   3.816  10.676  0.4954 -0.3246 -0.5985
19957SOL     OW61311   7.508   2.939   7.793 -0.3925  0.1189 -0.1083
19957SOL    HW161312   7.433   2.953   7.850 -0.1900 -1.6894  0.6650
19957SOL    HW261313   7.544   2.854   7.820 -0.3463 -0.8875 -2.9683
19958SOL     OW61314   6.586   4.902   8.658  0.1554 -0.4490  1.0963
19958SOL    HW161315   6.525   4.876   8.589  0.7016  0.6107  0.1844
19958SOL    HW261316   6.530   4.920   8.733 -0.7403  0.8129  0.1847
19959SOL     OW61317   0.912   2.682   1.811 -0.0621 -0.1249 -0.5471
19959SOL    HW161318   0.961   2.674   1.730  1.5615 -2.3448  0.5396
19959SOL    HW261319   0.920   2.775   1.835  3.0395 -0.2250 -0.8169
19960SOL     OW61320   2.045   4.349   8.222  0.5252 -0.4747 -0.6984
19960SOL    HW161321   2.092   4.418   8.270 -0.3795 -0.9925  1.0416
19960SOL    HW261322   2.111   4.282   8.205  0.3300 -1.7172  2.7208
19961SOL     OW61323   2.247   4.321   4.715 -0.3393 -0.5427 -0.2383
19961SOL    HW161324   2.304   4.255   4.675  1.7657  0.0588  1.5682
19961SOL    HW261325   2.299   4.401   4.717 -1.1700  0.0190  1.5864
19962SOL     OW61326   5.586   5.598   2.722 -0.0481 -0.1210  0.5419
19962SOL    HW161327   5.623   5.610   2.635 -1.6255  1.6782  0.0305
19962SOL    HW261328   5.494   5.578   2.706 -0.2982 -0.0355  1.7803
19963SOL     OW61329   0.979   6.963   5.406 -0.3806  0.2906  0.2774
19963SOL    HW161330   1.070   6.934   5.412  0.0517  1.6913  1.1075
19963SOL    HW261331   0.948   6.929   5.322  1.5182  1.3841 -0.9477
19964SOL     OW61332   3.420   4.332   7.390 -0.2819  0.4660  0.1313
19964SOL    HW161333   3.386   4.408   7.343 -3.5369 -1.0815 -0.3467
19964SOL    HW261334   3.479   4.289   7.327 -0.6519  1.0910 -0.6607
19965SOL     OW61335   5.479   4.746   7.861 -0.0728  0.6392  0.8329
19965SOL    HW161336   5.403   4.788   7.819  1.6770  3.0834 -0.1486
19965SOL    HW261337   5.540   4.730   7.789 -0.1837 -2.7591  1.3638
19966SOL     OW61338   0.216   4.009   4.862  0.1128  0.1518 -0.1988
19966SOL    HW161339   0.219   4.104   4.854  0.4698  0.2688  1.1432
19966SOL    HW261340   0.300   3.985   4.902 -0.4629 -0.5895  0.6172
19967SOL     OW61341   3.070   5.044  10.548  0.3752  0.1689 -0.3541
19967SOL    HW161342   3.159   5.021  10.576  0.2712 -1.2363 -1.0603
19967SOL    HW261343   3.016   5.031  10.626  0.4549 -1.3602 -0.5108
19968SOL     OW61344   3.176   3.376   9.984 -0.1567  0.3328 -0.5983
19968SOL    HW161345   3.245   3.334   9.932  0.5006 -0.7809  1.0911
19968SOL    HW261346   3.222   3.442  10.036 -0.1927 -0.8526  1.0154
19969SOL     OW61347   2.109   2.014   2.570 -0.7257 -0.1474  0.0210
19969SOL    HW161348   2.159   2.071   2.628 -0.8395 -0.3154  0.2859
19969SOL    HW261349   2.111   1.928   2.612  0.2839 -0.5837 -0.8767
19970SOL     OW61350   6.843   6.662   8.928  0.0454 -0.1260 -0.1252
19970SOL    HW161351   6.790   6.665   8.849 -1.9611 -0.8359  1.1191
19970SOL    HW261352   6.846   6.753   8.958 -0.6644 -0.1015 -0.1052
19971SOL     OW61353   4.031   2.936   3.420  0.7387 -0.4061  0.5585
19971SOL    HW161354   4.065   3.006   3.364  2.0709 -0.2018  1.5669
19971SOL    HW261355   3.999   2.982   3.498  1.2498 -0.8757  1.0512
19972SOL     OW61356   3.540   2.282   4.213 -0.4513 -0.2919  0.0252
19972SOL    HW161357   3.589   2.202   4.193  1.5226  0.3887  1.7576
19972SOL    HW261358   3.466   2.253   4.266  0.9309 -0.9217  1.7026
19973SOL     OW61359   0.795   7.207   8.039 -0.5738 -0.6558  0.2994
19973SOL    HW161360   0.803   7.111   8.040  2.5946 -0.4946  0.4062
19973SOL    HW261361   0.846   7.236   8.115 -2.9538  1.1081  1.3198
19974SOL     OW61362   7.616   5.898   3.654 -0.3886  0.0574  0.1342
19974SOL    HW161363   7.696   5.919   3.704 -1.3111  0.2539  1.5921
19974SOL    HW261364   7.552   5.962   3.684 -1.7387 -1.5022  0.6908
19975SOL     OW61365   6.767   3.595   6.601 -0.5933  0.4009  0.4983
19975SOL    HW161366   6.681   3.614   6.638 -0.4808 -1.3844  1.7934
19975SOL    HW261367   6.758   3.508   6.562  0.4655  0.4381  0.1355
19976SOL     OW61368   7.478   2.568  10.517  0.4895 -0.0604  0.1634
19976SOL    HW161369   7.389   2.593  10.495 -0.1254 -0.5239  1.9180
19976SOL    HW261370   7.474   2.473  10.531  1.2078 -0.0610  0.4180
19977SOL     OW61371   2.226   6.673   2.462  0.0515 -0.2599 -0.1796
19977SOL    HW161372   2.264   6.740   2.406  0.8589  0.9905  1.7478
19977SOL    HW261373   2.298   6.612   2.480 -0.0741 -0.3981 -0.1353
19978SOL     OW61374   2.900   1.787   0.580  0.1220  0.2721  0.2440
19978SOL    HW161375   2.838   1.777   0.508 -0.8527 -0.7532  1.1957
19978SOL    HW261376   2.901   1.881   0.598 -0.5285  0.3920 -0.3205
19979SOL     OW61377   5.271   1.323   2.703 -0.0601 -0.3223 -0.2999
19979SOL    HW161378   5.249   1.363   2.787  0.3658  0.3608 -0.5017
19979SOL    HW261379   5.221   1.242   2.701  0.1987 -0.5254  0.7676
19980SOL     OW61380   2.228   4.363  12.286  0.3745 -0.2400 -0.2522
19980SOL    HW161381   2.158   4.363  12.352 -0.6624 -2.6348 -1.2005
19980SOL    HW261382   2.300   4.410  12.327 -0.9765  0.2540  1.7175
19981SOL     OW61383   3.182   7.031  11.713  0.2617  0.3242 -0.4314
19981SOL    HW161384   3.104   7.057  11.762  0.4804  0.0086  0.0877
19981SOL    HW261385   3.151   7.021  11.622  0.0228  1.6563 -0.5085
19982SOL     OW61386   1.636   1.172   6.461 -0.5078 -0.4952  0.1065
19982SOL    HW161387   1.583   1.093   6.448  0.8620 -1.3293 -0.6383
19982SOL    HW261388   1.714   1.141   6.509  0.2160  0.3330 -0.5023
19983SOL     OW61389   5.078   2.578   7.551 -0.3063  0.5848 -0.1285
19983SOL    HW161390   5.169   2.561   7.575 -0.2664 -1.3510 -1.4571
19983SOL    HW261391   5.055   2.506   7.492 -3.2511  0.0029  1.5359
19984SOL     OW61392   0.705   2.992   1.078 -0.3724 -0.1078 -0.7535
19984SOL    HW161393   0.722   2.952   1.162  0.1117 -2.3489 -1.8536
19984SOL    HW261394   0.610   3.002   1.075 -0.3848  0.0899  0.0747
19985SOL     OW61395   6.834   7.681   3.389 -0.6576  0.0601 -0.0223
19985SOL    HW161396   6.795   7.628   3.458 -2.4889  1.1871 -0.1113
19985SOL    HW261397   6.818   7.631   3.309 -0.7863 -0.0878  0.0931
19986SOL     OW61398   6.531   0.333   2.829  0.1224 -0.3595  0.0903
19986SOL    HW161399   6.463   0.383   2.784  0.7839  0.5015  0.0133
19986SOL    HW261400   6.534   0.250   2.781  0.0066  0.0910 -0.7334
19987SOL     OW61401   0.162   3.526   4.856 -0.3102 -0.6506  0.2380
19987SOL    HW161402   0.105   3.457   4.889 -1.9807  0.0932 -0.9312
19987SOL    HW261403   0.126   3.548   4.770 -0.4913  2.3607  0.9581
19988SOL     OW61404   5.320   0.637   3.010 -0.0793 -0.3769 -0.3846
19988SOL    HW161405   5.383   0.622   2.940  0.4524 -1.0096  0.2167
19988SOL    HW261406   5.312   0.553   3.055 -0.4149  0.0109  0.3105
19989SOL     OW61407   3.886   4.602  10.976 -0.0335  0.0940  0.4866
19989SOL    HW161408   3.956   4.543  10.948  1.6209  1.4261  1.6068
19989SOL    HW261409   3.893   4.677  10.917 -1.3152 -0.2547 -0.1430
19990SOL     OW61410   7.701   1.595   3.742 -0.5044 -0.0704 -0.4719
19990SOL    HW161411   7.754   1.516   3.733 -1.5234 -0.9741  1.0976
19990SOL    HW261412   7.622   1.577   3.691 -0.8608 -0.2002  0.1140
19991SOL     OW61413   7.108   4.929   9.891  0.0482 -0.5099 -0.5159
19991SOL    HW161414   7.044   4.978   9.942 -0.8359 -3.6071  1.6792
19991SOL    HW261415   7.057   4.887   9.822  0.0564 -1.3234 -0.0412
19992SOL     OW61416   5.307   5.673   6.140 -0.5841 -0.4695  0.0696
19992SOL    HW161417   5.378   5.733   6.165 -0.2249 -1.5475  1.7623
19992SOL    HW261418   5.281   5.703   6.053  0.6657  1.1358  0.1900
19993SOL     OW61419   2.681   4.345   7.460  0.1210 -0.1667 -0.2125
19993SOL    HW161420   2.773   4.356   7.485  0.3870 -1.8135 -0.3748
19993SOL    HW261421   2.675   4.385   7.373  0.7656 -0.3637 -0.3495
19994SOL     OW61422   7.696   1.183   2.167 -0.2335  0.1018  0.4545
19994SOL    HW161423   7.722   1.158   2.256 -0.2762 -0.4432  0.3154
19994SOL    HW261424   7.779   1.208   2.125  0.0241 -1.1880  0.1566
19995SOL     OW61425   7.562   2.611   2.205  0.8352  0.4566 -0.2417
19995SOL    HW161426   7.512   2.664   2.267  1.0382 -0.5032  0.7937
19995SOL    HW261427   7.497   2.579   2.143  0.0581 -0.9348  1.1980
19996SOL     OW61428   5.405   7.029   8.179 -0.1862 -0.4811 -0.3205
19996SOL    HW161429   5.500   7.020   8.180 -0.1491 -0.0430  0.5384
19996SOL    HW261430   5.381   7.020   8.086  0.6213 -1.1993 -0.4679
19997SOL     OW61431   4.986   7.822   7.653  0.6627 -0.5914  0.2954
19997SOL    HW161432   4.992   7.915   7.634 -1.3260 -1.0703 -3.8347
19997SOL    HW261433   4.893   7.808   7.674  0.7001 -1.7443 -0.2313
19998SOL     OW61434   6.907   7.246   9.346 -0.6569  0.1445  0.1004
19998SOL    HW161435   6.959   7.313   9.389  2.0789 -1.9709  0.4001
19998SOL    HW261436   6.856   7.205   9.416  0.9482 -0.8270  0.7655
19999SOL     OW61437   7.927   7.045   2.346 -0.6205  0.2213 -0.5723
19999SOL    HW161438   8.018   7.057   2.319 -0.9496  0.2676 -1.6797
19999SOL    HW261439   7.897   6.968   2.298 -0.6454 -0.9119  1.1510
20000SOL     OW61440   1.549   4.255   1.650  0.5335  1.1572  0.2693
20000SOL    HW161441   1.462   4.294   1.662 -0.3158 -0.3774 -0.5858
20000SOL    HW261442   1.582   4.244   1.739  0.2736  2.6057  0.5761
20001SOL     OW61443   4.749   1.576   0.910 -0.1173 -0.3707  0.3501
20001SOL    HW161444   4.798   1.513   0.856 -1.6076 -0.5086 -0.9069
20001SOL    HW261445   4.756   1.541   0.999 -1.0205 -2.4395 -0.3276
20002SOL     OW61446   2.514   4.283   3.300  0.0760 -0.5876  0.1566
20002SOL    HW161447   2.486   4.324   3.382  1.4547 -0.3528  0.5315
20002SOL    HW261448   2.537   4.356   3.243  1.2211 -0.7835  0.3452
20003SOL     OW61449   3.229   3.181  11.472  0.1972  0.4342 -0.1383
20003SOL    HW161450   3.201   3.265  11.507  0.9043  0.2263  0.9612
20003SOL    HW261451   3.234   3.123  11.548 -1.8707 -1.0933 -1.0709
20004SOL     OW61452   1.014   1.887   1.636  0.5194 -0.0114  0.5289
20004SOL    HW161453   1.063   1.968   1.621  0.4804 -0.0518  0.1863
20004SOL    HW261454   0.948   1.886   1.568  0.2567 -0.1289  0.7858
20005SOL     OW61455   3.528   7.122   2.319  0.2765  0.4881 -0.1273
20005SOL    HW161456   3.476   7.105   2.240  1.0533 -0.3290 -0.4752
20005SOL    HW261457   3.495   7.058   2.383  1.5937 -0.8335 -0.7059
20006SOL     OW61458   7.900   2.040   6.965 -0.1787  0.0000 -0.6529
20006SOL    HW161459   7.811   2.007   6.977 -1.0363  2.7926  1.7217
20006SOL    HW261460   7.955   1.978   7.014 -0.8983 -1.1630 -1.2681
20007SOL     OW61461   1.340   6.564  11.046  0.1164 -0.0953  0.5722
20007SOL    HW161462   1.414   6.625  11.052  1.2342 -1.4752  1.2943
20007SOL    HW261463   1.264   6.620  11.031  1.4502  1.3057 -1.4591
20008SOL     OW61464   7.657   6.300   5.976  0.2775 -0.2013  1.2459
20008SOL    HW161465   7.630   6.380   6.021 -0.6938  0.2904 -0.1650
20008SOL    HW261466   7.587   6.238   5.994 -0.3162  0.1192  0.1353
20009SOL     OW61467   3.428   5.263   2.272 -0.1917 -0.2869  0.1786
20009SOL    HW161468   3.356   5.307   2.228 -0.5890 -0.4783  0.6271
20009SOL    HW261469   3.396   5.247   2.361  0.6573  0.2399  0.5875
20010SOL     OW61470   2.877   6.589   2.647  0.1565 -0.3878  0.1394
20010SOL    HW161471   2.847   6.675   2.676 -1.5604 -1.2261  1.0646
20010SOL    HW261472   2.961   6.576   2.690  0.2232  0.6517  0.3299
20011SOL     OW61473   5.433   6.932   5.199  0.1478  0.4882  0.2868
20011SOL    HW161474   5.526   6.910   5.212 -0.5706 -2.2613  1.4358
20011SOL    HW261475   5.401   6.949   5.288 -0.1196  3.3487 -0.2623
20012SOL     OW61476   7.941   3.457  10.218 -0.1405 -0.4246 -0.2486
20012SOL    HW161477   7.979   3.442  10.132  0.1638  2.6787 -0.7533
20012SOL    HW261478   7.861   3.507  10.202 -0.8890 -1.0684  1.2057
20013SOL     OW61479   3.352   5.113   8.018 -0.0765 -0.2849 -0.2459
20013SOL    HW161480   3.344   5.049   8.089  1.4084  0.7514  0.9266
20013SOL    HW261481   3.435   5.091   7.975 -0.5707 -0.4009 -1.1568
20014SOL     OW61482   7.318   7.178   0.693 -0.1007  0.2439  0.2750
20014SOL    HW161483   7.340   7.091   0.659  0.9294 -0.5963  2.8705
20014SOL    HW261484   7.222   7.179   0.695 -0.1204 -1.2689  1.2121
20015SOL     OW61485   5.481   5.872  10.203  0.1226  0.3184 -0.0592
20015SOL    HW161486   5.521   5.786  10.194 -0.9805 -0.1862 -0.3509
20015SOL    HW261487   5.388   5.857  10.183 -0.1890  1.4603  0.4646
20016SOL     OW61488   7.703   1.459   9.936 -0.0986 -0.2443  0.4014
20016SOL    HW161489   7.729   1.368   9.949  0.3278 -0.0258  1.1080
20016SOL    HW261490   7.608   1.456   9.930 -0.3973 -0.4016  3.6278
20017SOL     OW61491   5.070   4.479   1.465 -0.2862  0.2231  0.2777
20017SOL    HW161492   5.009   4.551   1.476  0.9555  1.4923 -0.7968
20017SOL    HW261493   5.096   4.483   1.373 -0.0172 -1.4682  0.2460
20018SOL     OW61494   6.452   0.773   7.038  0.1400 -0.4337  0.2239
20018SOL    HW161495   6.525   0.786   6.978  1.4595 -2.0627  1.3946
20018SOL    HW261496   6.395   0.710   6.993  1.7900 -2.6991  1.1119
20019SOL     OW61497   7.107   0.561   8.975  0.4407 -0.2582 -0.1744
20019SOL    HW161498   7.097   0.619   8.900  0.5317 -1.6954 -1.3612
20019SOL    HW261499   7.019   0.550   9.009  0.5360  1.2585  0.6467
20020SOL     OW61500   6.916   0.297   5.055 -0.1604  0.2871  0.0747
20020SOL    HW161501   6.878   0.344   4.980 -1.3614  0.8573  1.0022
20020SOL    HW261502   6.879   0.209   5.049 -0.3061  0.3500  0.0318
20021SOL     OW61503   5.841   2.462   0.744  0.1342  0.4792 -0.1313
20021SOL    HW161504   5.862   2.435   0.833  0.0439 -0.2886 -0.3306
20021SOL    HW261505   5.807   2.382   0.702 -1.5881  1.2543 -0.3106
20022SOL     OW61506   7.247   4.413  10.928 -0.6667  0.4460  0.2529
20022SOL    HW161507   7.210   4.414  11.017 -0.3131  0.3773  0.4044
20022SOL    HW261508   7.261   4.320  10.910  1.9096  0.5680  1.2571
20023SOL     OW61509   2.066   6.744   2.670  0.3858  0.2315 -0.3159
20023SOL    HW161510   2.039   6.835   2.665  0.3711  0.7018  4.3088
20023SOL    HW261511   2.151   6.741   2.625  0.8505  2.7597  0.2635
20024SOL     OW61512   3.883   0.842   2.919  0.2929 -0.4595 -0.4244
20024SOL    HW161513   3.824   0.895   2.973 -0.6739  0.5061 -2.3248
20024SOL    HW261514   3.826   0.777   2.878  0.6322  0.0706 -1.7913
20025SOL     OW61515   3.207   7.889   8.050 -0.3173 -0.1191 -0.3295
20025SOL    HW161516   3.256   7.819   8.007 -1.6263 -0.1287 -1.8833
20025SOL    HW261517   3.157   7.930   7.980  0.3358  2.3622  0.5477
20026SOL     OW61518   5.260   2.816   8.408  0.4912 -0.5522  0.1172
20026SOL    HW161519   5.345   2.841   8.371 -0.0363  1.4816  0.1253
20026SOL    HW261520   5.262   2.721   8.412  2.6485 -0.5605 -0.1530
20027SOL     OW61521   2.737   2.332   6.017 -0.3201 -0.0490 -0.2024
20027SOL    HW161522   2.743   2.332   5.921 -2.1460  0.1380 -0.3477
20027SOL    HW261523   2.743   2.424   6.041 -0.5946 -0.0306 -0.2010
20028SOL     OW61524   5.426   7.793   1.115 -0.5223 -0.0650 -0.0531
20028SOL    HW161525   5.426   7.882   1.081  1.7651  0.4457  1.1194
20028SOL    HW261526   5.405   7.738   1.039 -0.8216  1.3718 -1.0434
20029SOL     OW61527   3.275   3.156   7.073  0.2310 -0.0036 -0.2526
20029SOL    HW161528   3.235   3.200   6.998  1.4182 -2.5658 -2.5405
20029SOL    HW261529   3.361   3.197   7.082  1.8597 -2.3785 -3.1888
20030SOL     OW61530   2.022   3.301   7.817 -0.3597  0.6463  0.1111
20030SOL    HW161531   1.933   3.268   7.828  0.4787 -2.0895 -0.3582
20030SOL    HW261532   2.062   3.291   7.904  0.1492 -0.5599 -0.2291
20031SOL     OW61533   7.048   2.769   7.921  0.0168 -0.5798  0.2599
20031SOL    HW161534   7.012   2.832   7.858 -1.1131 -0.9562  0.5003
20031SOL    HW261535   7.078   2.696   7.867 -1.2279 -1.0369  0.1535
20032SOL     OW61536   0.902   5.873   4.445 -0.1568  0.4775 -0.0868
20032SOL    HW161537   0.933   5.907   4.530 -0.1489  2.2385 -0.7379
20032SOL    HW261538   0.808   5.891   4.446 -0.2789 -0.1469 -0.1777
20033SOL     OW61539   1.985   5.738   4.093  0.1766  0.1383  0.7703
20033SOL    HW161540   2.046   5.800   4.052 -1.3333  0.0755 -1.8025
20033SOL    HW261541   1.906   5.789   4.108 -0.1540 -0.5031  1.2687
20034SOL     OW61542   1.737   6.887  10.872 -0.1590  0.1487  0.5066
20034SOL    HW161543   1.697   6.958  10.922 -0.1553  1.3697 -1.1656
20034SOL    HW261544   1.831   6.909  10.871 -0.4412  1.6691 -2.2391
20035SOL     OW61545   7.292   1.820   0.662 -0.6573  0.0345 -0.6486
20035SOL    HW161546   7.238   1.899   0.663 -0.9444 -0.1561 -0.5515
20035SOL    HW261547   7.242   1.758   0.607  0.1373  0.3055 -1.7118
20036SOL     OW61548   1.621   5.850   2.785 -0.4550 -0.6247  0.1827
20036SOL    HW161549   1.619   5.845   2.689 -1.4547  0.6857  0.1006
20036SOL    HW261550   1.702   5.805   2.810  0.6622  0.3918 -1.3857
20037SOL     OW61551   2.618   0.460  11.768 -0.0967  0.3601 -0.1321
20037SOL    HW161552   2.693   0.519  11.759 -0.7551  1.7406  2.5364
20037SOL    HW261553   2.657   0.373  11.778  1.0339  0.7576 -0.8598
20038SOL     OW61554   0.791   5.468   9.267  0.4328  0.3089 -0.4204
20038SOL    HW161555   0.805   5.451   9.360  1.2145 -0.3213 -0.6378
20038SOL    HW261556   0.875   5.499   9.234 -0.2702  2.0990 -0.6053
20039SOL     OW61557   0.854   5.464   1.769  0.2194  0.2335  0.1386
20039SOL    HW161558   0.818   5.394   1.824 -1.4455  0.2764 -0.8259
20039SOL    HW261559   0.795   5.469   1.694  1.4818  1.3028 -0.8436
20040SOL     OW61560   3.906   4.385   6.987 -0.6216 -0.1530 -0.3776
20040SOL    HW161561   3.817   4.408   7.013 -0.9771  0.8773 -2.3616
20040SOL    HW261562   3.962   4.423   7.055 -1.6131  0.4869  0.0880
20041SOL     OW61563   2.499   2.398   2.301  0.3307 -0.1765  0.2281
20041SOL    HW161564   2.478   2.332   2.367 -2.2841 -1.2389 -1.4897
20041SOL    HW261565   2.414   2.434   2.275  1.4427  1.7515 -1.0475
20042SOL     OW61566   5.347   2.837   7.433 -0.1474 -0.3372 -0.2698
20042SOL    HW161567   5.370   2.884   7.353  2.1027 -0.1993  0.3844
20042SOL    HW261568   5.254   2.856   7.446  0.1073  2.0248 -1.2840
20043SOL     OW61569   7.601   6.541   6.483  0.2595 -0.1871  0.0306
20043SOL    HW161570   7.674   6.602   6.481  0.6081 -0.4799  1.8158
20043SOL    HW261571   7.536   6.582   6.540 -0.4266 -0.5122 -0.4958
20044SOL     OW61572   1.288   4.178   2.006  0.2735  0.1655 -0.0029
20044SOL    HW161573   1.227   4.195   2.077 -0.3198  1.1327 -0.7366
20044SOL    HW261574   1.288   4.082   1.998 -1.7954  0.1590 -0.5367
20045SOL     OW61575   2.829   7.156   0.336  0.3403  0.0709  0.6990
20045SOL    HW161576   2.862   7.141   0.247  0.6788  0.7229  0.7010
20045SOL    HW261577   2.891   7.220   0.373  0.0733 -0.0296  1.3225
20046SOL     OW61578   5.696   7.052   8.171 -0.2710 -0.2196 -0.7019
20046SOL    HW161579   5.766   7.026   8.230 -0.6816 -1.5031 -0.7299
20046SOL    HW261580   5.740   7.072   8.088  0.1167 -0.4231 -0.5479
20047SOL     OW61581   5.573   2.134   0.964 -0.3394  0.0477 -0.2138
20047SOL    HW161582   5.645   2.113   0.904 -0.8296  0.2526 -0.8750
20047SOL    HW261583   5.590   2.078   1.040  1.0064  0.7140  0.0179
20048SOL     OW61584   7.329   0.982  11.303  0.5342  0.4602  0.1123
20048SOL    HW161585   7.381   0.935  11.237  0.6391  0.0433  0.4889
20048SOL    HW261586   7.252   1.012  11.254 -0.0955 -1.0713  0.0927
20049SOL     OW61587   6.958   0.576   0.580 -0.0850  0.1218  0.1005
20049SOL    HW161588   6.967   0.608   0.670  1.0952  0.3173 -0.0696
20049SOL    HW261589   6.980   0.651   0.525  0.8867 -0.4368 -0.3199
20050SOL     OW61590   7.406   4.914   1.039 -0.9696 -0.2188  0.0266
20050SOL    HW161591   7.401   5.008   1.059 -1.4475 -0.4678  1.1531
20050SOL    HW261592   7.353   4.903   0.960 -2.1598  0.2530  0.7246
20051SOL     OW61593   7.953   1.101   9.624 -0.0339  0.4707 -0.5137
20051SOL    HW161594   7.863   1.127   9.604 -1.4253 -1.0272  2.9917
20051SOL    HW261595   7.968   1.135   9.713  4.4659  4.1742 -2.2490
20052SOL     OW61596   4.428   1.555   1.648  0.0867 -0.4710 -0.4242
20052SOL    HW161597   4.361   1.489   1.632  0.0160 -0.1809 -1.3655
20052SOL    HW261598   4.502   1.506   1.684 -0.0206 -1.0399 -0.9681
20053SOL     OW61599   3.299   5.442   0.727 -0.8801 -0.1250  0.7156
20053SOL    HW161600   3.261   5.530   0.724 -0.9293 -0.1835 -0.9901
20053SOL    HW261601   3.238   5.388   0.676 -0.1841 -0.8864  0.6735
20054SOL     OW61602   2.265   6.219   8.574 -0.2238 -0.4939  0.4347
20054SOL    HW161603   2.295   6.128   8.578  1.6010  0.0820  1.4351
20054SOL    HW261604   2.306   6.254   8.495  0.9926  0.0123  1.2432
20055SOL     OW61605   2.028   0.694   5.096 -0.1763  0.3250  0.3790
20055SOL    HW161606   2.111   0.715   5.139 -1.6281  0.9368  3.1696
20055SOL    HW261607   2.015   0.764   5.033  0.9816  0.7687  0.6054
20056SOL     OW61608   6.765   0.766  10.471 -0.1981  0.0462 -0.4679
20056SOL    HW161609   6.674   0.794  10.463 -0.9045 -1.8903  0.2174
20056SOL    HW261610   6.800   0.772  10.382 -1.7855 -1.5436 -1.2679
20057SOL     OW61611   6.296   7.744   7.527 -0.2023 -0.2453 -0.1636
20057SOL    HW161612   6.375   7.734   7.580 -0.3767 -0.1314  0.1192
20057SOL    HW261613   6.288   7.661   7.481 -0.5232 -0.6738  0.6397
20058SOL     OW61614   4.256   7.446  10.827  0.5934 -0.3210 -0.4305
20058SOL    HW161615   4.208   7.507  10.772  0.0517 -1.5716 -1.3740
20058SOL    HW261616   4.236   7.473  10.917  0.1253  0.6885 -0.8353
20059SOL     OW61617   0.522   6.972   1.392  0.1600 -0.4373  0.3690
20059SOL    HW161618   0.548   6.928   1.473 -0.5065  0.0953  0.8818
20059SOL    HW261619   0.599   7.023   1.367 -0.4135  1.3419  2.0210
20060SOL     OW61620   0.838   1.338   6.756  0.2323 -0.3218 -0.3225
20060SOL    HW161621   0.816   1.351   6.849  1.9734  1.4675 -0.0987
20060SOL    HW261622   0.917   1.284   6.757  0.1747 -0.4177 -0.7713
20061SOL     OW61623   7.809   7.872   0.108 -0.0511 -0.0710  0.3147
20061SOL    HW161624   7.872   7.943   0.124 -1.5348  1.1939  0.8393
20061SOL    HW261625   7.818   7.853   0.015  0.4501  0.7486  0.1763
20062SOL     OW61626   7.732   3.031   1.766 -0.0910 -0.0594  0.7330
20062SOL    HW161627   7.758   3.119   1.739 -1.0745 -0.6114 -2.5209
20062SOL    HW261628   7.637   3.037   1.779  0.1658 -0.1597  2.9162
20063SOL     OW61629   3.077   0.161  10.543 -0.5170  0.1961  0.0480
20063SOL    HW161630   3.148   0.158  10.607 -0.0508 -1.3214 -0.4957
20063SOL    HW261631   3.082   0.249  10.505  0.7095  0.3102  0.4343
20064SOL     OW61632   3.134   3.312  10.480 -0.1965 -0.6686  0.0520
20064SOL    HW161633   3.087   3.268  10.409  1.6350 -1.6356 -0.6058
20064SOL    HW261634   3.064   3.339  10.541 -1.6244 -1.7628 -1.0187
20065SOL     OW61635   1.448   2.294   1.554 -0.8025 -0.2611 -0.3282
20065SOL    HW161636   1.409   2.370   1.510 -0.4916  0.6845  0.9719
20065SOL    HW261637   1.449   2.318   1.646 -0.0056 -1.5633  0.0249
20066SOL     OW61638   5.133   4.204   9.349  0.0676  0.2067 -0.1062
20066SOL    HW161639   5.225   4.225   9.365 -0.2098  2.2021 -0.8261
20066SOL    HW261640   5.118   4.227   9.257 -0.5927 -2.3492 -0.7053
20067SOL     OW61641   7.402   5.670   7.521 -0.2323  0.2002  0.2314
20067SOL    HW161642   7.415   5.594   7.464 -0.9707  0.3972 -0.2086
20067SOL    HW261643   7.307   5.677   7.529 -0.1786  1.3026 -0.0415
20068SOL     OW61644   0.413   6.053   0.902 -0.3167  0.2710 -0.1217
20068SOL    HW161645   0.480   6.116   0.929  0.1630 -0.8692  1.4743
20068SOL    HW261646   0.433   6.036   0.810  2.0898 -0.5632  0.4797
20069SOL     OW61647   5.014   2.160   5.135  0.0110  0.3439 -0.3988
20069SOL    HW161648   5.055   2.235   5.179 -1.8338  0.3496  1.4960
20069SOL    HW261649   5.088   2.107   5.103  1.4307  1.3103  1.1164
20070SOL     OW61650   6.194   7.127   4.924  0.1597 -0.7746  0.2348
20070SOL    HW161651   6.279   7.128   4.880 -0.0778  2.0034 -0.3210
20070SOL    HW261652   6.156   7.042   4.900  1.0344 -0.3842 -3.0166
20071SOL     OW61653   4.654   1.404   9.151 -0.1935  0.0907  0.3062
20071SOL    HW161654   4.703   1.353   9.216  0.8577 -0.0472 -0.5696
20071SOL    HW261655   4.575   1.353   9.135 -0.3709  0.0207  1.2996
20072SOL     OW61656   4.406   5.794   7.424  0.5460 -0.6286  0.9212
20072SOL    HW161657   4.335   5.774   7.363 -0.4684 -2.0916  2.4718
20072SOL    HW261658   4.387   5.883   7.454  0.0658 -0.5461  0.4029
20073SOL     OW61659   2.327   1.110   0.343  0.4493 -0.8144  0.3025
20073SOL    HW161660   2.250   1.067   0.304  1.6115 -2.9725  0.2231
20073SOL    HW261661   2.393   1.107   0.274  0.6208  1.1249  0.3300
20074SOL     OW61662   2.599   4.727   7.024 -0.1421 -0.0072 -0.2528
20074SOL    HW161663   2.601   4.777   6.943 -0.7048  2.5105  1.2018
20074SOL    HW261664   2.691   4.707   7.041 -0.0056 -0.4921 -1.4226
20075SOL     OW61665   4.296   2.665   8.597 -0.5460  0.1004 -0.5341
20075SOL    HW161666   4.226   2.660   8.532 -0.5633 -1.0345 -0.4557
20075SOL    HW261667   4.377   2.660   8.546 -0.4073  3.0391 -0.7807
20076SOL     OW61668   7.358   1.121   9.412 -0.5272 -0.4263  0.7214
20076SOL    HW161669   7.365   1.214   9.429 -0.1894 -0.0555 -1.2015
20076SOL    HW261670   7.343   1.115   9.317  0.2208 -2.3383  0.6796
20077SOL     OW61671   7.836   5.064   7.956  0.4335 -0.5051 -0.2728
20077SOL    HW161672   7.782   4.995   7.994  0.4112 -0.1317  0.3812
20077SOL    HW261673   7.872   5.025   7.876 -1.1776 -0.6114 -0.9819
20078SOL     OW61674   1.161   2.277   7.928 -0.0495  0.6885 -0.2383
20078SOL    HW161675   1.095   2.257   7.995  0.7906  1.3493  0.8177
20078SOL    HW261676   1.122   2.246   7.846 -0.1601 -2.3308  0.8182
20079SOL     OW61677   2.718   5.284   3.086 -0.2867  0.2749  0.0154
20079SOL    HW161678   2.657   5.220   3.051 -0.3011  0.9000 -1.1748
20079SOL    HW261679   2.664   5.358   3.112 -0.2184  0.0357  0.8601
20080SOL     OW61680   5.908   4.559  11.508 -0.1964  0.1210 -0.0870
20080SOL    HW161681   5.929   4.528  11.596 -1.7804 -0.8156  0.0030
20080SOL    HW261682   5.989   4.547  11.458 -0.5294 -4.1191 -0.0158
20081SOL     OW61683   4.669   4.091  11.856 -0.2746 -0.0055 -0.1440
20081SOL    HW161684   4.689   4.015  11.802  0.6943 -0.5671  0.9613
20081SOL    HW261685   4.729   4.158  11.825  0.5768 -0.4564  0.5013
20082SOL     OW61686   6.364   7.194  12.087  0.0424 -0.5159  0.2670
20082SOL    HW161687   6.307   7.248  12.141  0.2241  0.1230 -0.1655
20082SOL    HW261688   6.452   7.208  12.122  0.0829 -0.5683  0.1878
20083SOL     OW61689   5.277   6.210  11.960 -0.4579 -0.7602  0.1790
20083SOL    HW161690   5.216   6.136  11.965 -0.6061 -0.7321 -0.9062
20083SOL    HW261691   5.243   6.263  11.888 -0.5501  0.5543  1.1538
20084SOL     OW61692   0.631   3.353   5.125  0.2910 -0.0449 -0.0728
20084SOL    HW161693   0.704   3.405   5.091  1.9515 -1.6039  0.8968
20084SOL    HW261694   0.591   3.409   5.192  0.2658  1.0290 -0.9654
20085SOL     OW61695   0.680   2.400   3.896 -0.0741  0.3499 -0.1373
20085SOL    HW161696   0.644   2.404   3.807 -0.1159 -1.6638 -0.2571
20085SOL    HW261697   0.769   2.365   3.885 -0.8848 -2.2429  0.7142
20086SOL     OW61698   1.307   0.995  11.915  0.0465 -0.1377  0.5141
20086SOL    HW161699   1.284   0.910  11.953 -1.7216  0.1679  0.2096
20086SOL    HW261700   1.373   0.975  11.849 -1.3043 -1.4795 -0.4923
20087SOL     OW61701   6.892   7.551   7.433 -0.2371  0.0758  0.0561
20087SOL    HW161702   6.946   7.527   7.357  0.0284  1.5607 -0.2536
20087SOL    HW261703   6.948   7.609   7.484 -1.8901  2.6958 -0.9036
20088SOL     OW61704   6.753   5.165   4.427  0.8807  0.3239  0.1003
20088SOL    HW161705   6.713   5.252   4.426  0.9158  0.3725 -1.8010
20088SOL    HW261706   6.717   5.121   4.349 -0.1580 -1.8746  1.7226
20089SOL     OW61707   1.309   5.347   5.927 -0.5205 -0.1065  0.3000
20089SOL    HW161708   1.395   5.383   5.903 -1.6697  1.3814 -1.9866
20089SOL    HW261709   1.281   5.298   5.849 -2.3264  0.6475  0.4244
20090SOL     OW61710   6.681   4.237   8.270 -0.9730 -0.6361 -0.2083
20090SOL    HW161711   6.681   4.289   8.189 -2.6594 -0.5058 -0.1539
20090SOL    HW261712   6.681   4.146   8.239 -1.1223 -0.5910 -0.3427
20091SOL     OW61713   0.377   2.753  11.263 -0.2263 -0.3045  0.2159
20091SOL    HW161714   0.305   2.756  11.200 -0.8847 -1.1924  0.9003
20091SOL    HW261715   0.334   2.767  11.348  0.5025 -0.1702  0.5680
20092SOL     OW61716   1.949   3.787   3.837 -0.0474  0.2530  0.3231
20092SOL    HW161717   1.981   3.711   3.885  3.4894  0.8219 -0.8327
20092SOL    HW261718   1.893   3.833   3.899  0.9993 -1.1916  2.4572
20093SOL     OW61719   5.776   0.341   6.664  0.0372  0.1281  0.6911
20093SOL    HW161720   5.764   0.255   6.622 -3.9165  0.6927  0.3128
20093SOL    HW261721   5.767   0.323   6.757  1.2044 -0.0614  0.7910
20094SOL     OW61722   3.140   0.831   6.298 -0.5866 -0.1525  0.4253
20094SOL    HW161723   3.107   0.915   6.266 -0.5686 -0.3743 -0.1980
20094SOL    HW261724   3.116   0.768   6.229  1.4717 -0.2710 -0.2651
20095SOL     OW61725   6.539   5.833   2.545 -0.0993  0.4600  0.3392
20095SOL    HW161726   6.449   5.863   2.559 -0.7488  0.3122 -2.9093
20095SOL    HW261727   6.537   5.739   2.564 -0.5132  0.5326  0.6612
20096SOL     OW61728   5.916   2.660   8.461  0.8762 -0.1270  0.3397
20096SOL    HW161729   5.904   2.752   8.439 -0.7670 -0.2809  0.4789
20096SOL    HW261730   5.939   2.660   8.554 -2.1367  0.0612  1.1991
20097SOL     OW61731   2.776   2.178   1.236  0.2905  0.3112 -0.4651
20097SOL    HW161732   2.788   2.246   1.170 -2.5104  1.3479 -0.0492
20097SOL    HW261733   2.730   2.222   1.307  0.2534 -1.5597  0.7283
20098SOL     OW61734   7.612   5.921   9.105  0.4995  0.3637  0.2203
20098SOL    HW161735   7.690   5.907   9.158  1.7164  0.1463 -1.5367
20098SOL    HW261736   7.613   6.014   9.085  0.0450  0.4444  0.5473
20099SOL     OW61737   7.483   5.548  10.707  0.0330 -0.2794  0.5785
20099SOL    HW161738   7.461   5.562  10.615  1.6612  1.0395  0.3376
20099SOL    HW261739   7.464   5.455  10.722 -2.5032 -0.0040 -0.3937
20100SOL     OW61740   0.419   2.875  10.570  0.6501  0.1139  0.1625
20100SOL    HW161741   0.457   2.803  10.520  0.6634  1.1075 -1.3420
20100SOL    HW261742   0.326   2.873  10.549  0.9588  1.7901 -1.6485
20101SOL     OW61743   3.197   2.702   9.476 -0.2165 -0.0624 -0.0344
20101SOL    HW161744   3.269   2.684   9.416  0.5527  0.7350  0.6213
20101SOL    HW261745   3.239   2.741   9.553 -1.3965  0.8635  0.1639
20102SOL     OW61746   3.763   6.007   2.333 -0.6769  0.4971  0.0033
20102SOL    HW161747   3.772   5.913   2.319 -0.9957  0.2163  1.4699
20102SOL    HW261748   3.715   6.039   2.257 -3.0899 -1.0228  0.7940
20103SOL     OW61749   5.031   2.410   9.768 -0.4469  0.1018 -0.2534
20103SOL    HW161750   5.005   2.468   9.696  1.6477 -0.4537 -1.5438
20103SOL    HW261751   5.119   2.438   9.791 -0.4108 -0.8755  0.9044
20104SOL     OW61752   1.857   2.970   2.701  0.0285  0.6811 -0.1227
20104SOL    HW161753   1.903   2.974   2.785 -0.5145 -1.0570  0.2904
20104SOL    HW261754   1.769   2.941   2.723 -0.3416  0.9037 -1.2433
20105SOL     OW61755   0.071   0.841   5.081  0.2062  0.3220 -0.2545
20105SOL    HW161756   0.095   0.931   5.059 -0.6011  0.4061 -0.8508
20105SOL    HW261757   0.010   0.850   5.154 -0.1531  0.2896 -0.5456
20106SOL     OW61758   0.683   7.260   9.452 -0.3460 -0.0006 -0.3886
20106SOL    HW161759   0.768   7.253   9.409  0.5487 -0.1304  1.3145
20106SOL    HW261760   0.670   7.354   9.464  1.0878 -0.0606  2.1512
20107SOL     OW61761   3.956   6.481   5.039  0.3363 -0.1007 -0.0209
20107SOL    HW161762   3.863   6.461   5.047  0.5093 -0.9012  0.1180
20107SOL    HW261763   3.993   6.404   4.997  1.2670 -0.6742  1.7358
20108SOL     OW61764   0.682   6.924   9.070  0.5838  0.3775  0.1162
20108SOL    HW161765   0.653   6.915   9.160 -1.3801  0.0749 -0.5021
20108SOL    HW261766   0.655   6.842   9.028 -2.8118  2.2516 -1.7852
20109SOL     OW61767   4.441   3.969   5.433 -0.2607 -0.0113  0.4516
20109SOL    HW161768   4.406   4.037   5.375 -3.5510 -1.8654  0.0373
20109SOL    HW261769   4.404   3.989   5.519 -0.5317 -0.7673  0.5176
20110SOL     OW61770   1.749   2.601   6.625  0.5043  0.4571  0.2111
20110SOL    HW161771   1.711   2.622   6.710  0.1590 -0.8028  0.3871
20110SOL    HW261772   1.711   2.516   6.602 -0.6070  1.4446 -1.9128
20111SOL     OW61773   5.087   1.959  12.121 -0.2139  0.3521  0.0946
20111SOL    HW161774   5.107   1.881  12.070 -0.5887  0.9438 -1.0003
20111SOL    HW261775   4.999   1.943  12.157 -1.1061  0.9776 -1.6558
20112SOL     OW61776   3.768   1.447   0.686 -0.4171  0.1198 -0.5175
20112SOL    HW161777   3.699   1.401   0.637 -1.2714  0.4254  0.3569
20112SOL    HW261778   3.835   1.467   0.621 -0.4048 -1.6133 -1.0856
20113SOL     OW61779   2.479   4.395  10.474 -0.7804 -0.5052 -0.2551
20113SOL    HW161780   2.391   4.405  10.510 -0.2321  1.3225  0.7180
20113SOL    HW261781   2.466   4.389  10.379 -1.9034  0.6845 -0.2003
20114SOL     OW61782   3.952   5.126   0.038 -0.0255  0.1278  0.0067
20114SOL    HW161783   4.004   5.052   0.068 -0.9730 -0.8697 -0.7097
20114SOL    HW261784   3.910   5.161   0.117 -0.7300 -1.0487  0.1760
20115SOL     OW61785   7.807   7.820   2.920  0.2498  0.1829  0.0911
20115SOL    HW161786   7.828   7.833   2.827  2.2407 -2.3526  0.0582
20115SOL    HW261787   7.711   7.814   2.922  0.0595  1.6417 -1.5428
20116SOL     OW61788   2.480   7.819   9.257  0.3988  0.2259  0.2105
20116SOL    HW161789   2.457   7.780   9.172 -1.1167  0.3916  0.5155
20116SOL    HW261790   2.575   7.808   9.263  0.1793 -2.5815 -0.1193
20117SOL     OW61791   5.524   2.923   5.848  0.7357 -0.0552  0.0960
20117SOL    HW161792   5.440   2.888   5.876  0.1290  0.3385 -1.1285
20117SOL    HW261793   5.561   2.855   5.792  1.8507 -0.7675  1.6374
20118SOL     OW61794   6.866   0.400   3.778 -0.4078  0.1476 -0.1550
20118SOL    HW161795   6.820   0.370   3.700 -0.2175 -0.4787 -0.0350
20118SOL    HW261796   6.956   0.370   3.766 -0.3790  0.0350  0.3102
20119SOL     OW61797   7.776   7.387   5.303 -0.0297 -0.2856 -0.0615
20119SOL    HW161798   7.829   7.337   5.365  1.4093 -1.2785 -1.9737
20119SOL    HW261799   7.712   7.324   5.270  1.7423 -1.0300 -2.4260
20120SOL     OW61800   5.776   7.073   4.612 -0.2876 -0.9727  0.4139
20120SOL    HW161801   5.781   6.977   4.606 -1.0777 -1.2524  2.8950
20120SOL    HW261802   5.864   7.100   4.636 -0.3566 -1.2625  1.0388
20121SOL     OW61803   1.643   6.594   0.759 -0.3908 -0.1518  0.6774
20121SOL    HW161804   1.670   6.678   0.798  1.5757  0.3657 -1.5718
20121SOL    HW261805   1.680   6.528   0.816  1.1939  0.5702  0.5344
20122SOL     OW61806   1.073   1.852   4.298 -0.2337 -0.1865 -0.4762
20122SOL    HW161807   1.049   1.763   4.325 -0.2865 -0.7572 -2.2666
20122SOL    HW261808   1.123   1.887   4.372  0.1639 -1.8697  0.0937
20123SOL     OW61809   5.513   4.222   8.934  0.2481 -1.1715  0.2639
20123SOL    HW161810   5.447   4.157   8.908 -0.2300 -0.4645 -0.3270
20123SOL    HW261811   5.498   4.296   8.875  2.0529 -1.2742 -0.3873
20124SOL     OW61812   7.329   1.120   6.795 -0.2121  0.0868 -0.1386
20124SOL    HW161813   7.303   1.150   6.883 -0.7580 -2.4151  0.6155
20124SOL    HW261814   7.396   1.054   6.811 -0.5512 -0.6400 -1.5821
20125SOL     OW61815   3.745   3.930   1.524 -0.0036 -0.0638  0.2397
20125SOL    HW161816   3.659   3.972   1.528 -0.6216 -0.9694 -2.2838
20125SOL    HW261817   3.806   4.002   1.508 -0.3265  0.5105  1.4584
20126SOL     OW61818   1.171   1.604   9.153 -0.0022  0.2686 -0.7617
20126SOL    HW161819   1.110   1.677   9.144  0.8091  1.4423  2.1516
20126SOL    HW261820   1.250   1.633   9.107  0.2346  1.1935  0.1787
20127SOL     OW61821   6.743   4.391   5.119 -0.0824 -0.4284  0.0218
20127SOL    HW161822   6.795   4.444   5.179 -0.7579 -1.1788  1.3301
20127SOL    HW261823   6.804   4.325   5.086  0.4127  0.2833 -0.5289
20128SOL     OW61824   1.866   5.014   4.357  0.4682 -0.2917  0.2653
20128SOL    HW161825   1.787   4.959   4.354  1.1922 -1.3272 -1.0883
20128SOL    HW261826   1.861   5.058   4.442 -0.6352 -1.7516  1.0108
20129SOL     OW61827   7.452   0.242  10.495 -0.4652 -0.0758  0.2524
20129SOL    HW161828   7.537   0.242  10.451 -1.0496  1.5833 -0.9932
20129SOL    HW261829   7.393   0.200  10.432 -1.3200  2.3495 -0.6728
20130SOL     OW61830   4.467   5.511   3.769 -0.1078  0.2814  0.0073
20130SOL    HW161831   4.492   5.502   3.861  0.0468 -0.7338 -0.1194
20130SOL    HW261832   4.512   5.438   3.726 -1.3004 -0.0854 -0.6375
20131SOL     OW61833   2.152   4.792   7.394  0.3844  0.1579 -0.1394
20131SOL    HW161834   2.143   4.699   7.372 -0.1643 -0.0113  0.7516
20131SOL    HW261835   2.116   4.800   7.482  0.2427  1.2581 -0.2757
20132SOL     OW61836   3.569   2.603   2.300 -0.1435 -0.1691  0.0942
20132SOL    HW161837   3.648   2.565   2.338 -0.9025 -1.1748  0.7147
20132SOL    HW261838   3.577   2.697   2.318  0.8654 -0.2739  0.2250
20133SOL     OW61839   6.943   3.688   4.502 -0.5267 -0.5956 -0.7568
20133SOL    HW161840   7.008   3.756   4.514 -1.5258  0.3335 -0.4327
20133SOL    HW261841   6.884   3.697   4.576 -0.3767 -2.1873 -0.4120
20134SOL     OW61842   2.641   0.393   5.979  0.8289 -0.1015  0.1513
20134SOL    HW161843   2.672   0.438   6.057  1.6087  0.9930 -0.7701
20134SOL    HW261844   2.558   0.436   5.957  0.7561 -0.2118  0.2102
20135SOL     OW61845   5.656   4.654  11.189 -0.5186  0.0667  0.4813
20135SOL    HW161846   5.615   4.731  11.228 -1.4779  1.0512 -2.2304
20135SOL    HW261847   5.658   4.590  11.260 -0.5321  2.2484  2.5695
20136SOL     OW61848   5.674   4.471  11.378 -0.2094 -0.1812 -0.1877
20136SOL    HW161849   5.745   4.494  11.439  0.8981  0.5290 -1.6637
20136SOL    HW261850   5.691   4.380  11.354  0.6287  0.1829 -1.0394
20137SOL     OW61851   1.526   2.709  11.840  0.2911  0.0900 -0.5034
20137SOL    HW161852   1.556   2.632  11.791  0.2708  0.3062 -0.8672
20137SOL    HW261853   1.603   2.738  11.888 -0.3327 -1.6632  1.6997
20138SOL     OW61854   4.659   3.849  11.398  0.0629 -0.2301 -0.0076
20138SOL    HW161855   4.575   3.816  11.430 -0.0929  0.6375  0.5120
20138SOL    HW261856   4.646   3.860  11.304 -0.7247  0.8150  0.2111
20139SOL     OW61857   4.012   4.393   5.682 -0.3755 -0.1579  0.0595
20139SOL    HW161858   3.963   4.447   5.620 -0.9076 -1.7957 -1.0311
20139SOL    HW261859   4.097   4.378   5.640  0.2595  0.8444  0.9383
20140SOL     OW61860   5.990   5.847  12.373  0.0648  0.3949 -0.3148
20140SOL    HW161861   5.945   5.821  12.453 -0.4470 -0.5967 -0.9085
20140SOL    HW261862   6.080   5.863  12.400 -0.1936  0.4795  0.5295
20141SOL     OW61863   5.924   2.197   4.659 -1.0423  0.0280 -0.1779
20141SOL    HW161864   5.879   2.121   4.697 -3.5304  1.2295 -0.6034
20141SOL    HW261865   5.954   2.167   4.573 -1.4241 -0.6484 -0.0785
20142SOL     OW61866   4.781   7.268   3.607 -0.4177 -0.5596  0.3046
20142SOL    HW161867   4.706   7.321   3.635  0.8423  1.8407 -0.5688
20142SOL    HW261868   4.842   7.272   3.680 -0.4311 -1.1031  0.3530
20143SOL     OW61869   6.809   0.980   4.763  0.3851 -0.0750 -0.5130
20143SOL    HW161870   6.719   0.974   4.730  0.9200 -0.4938 -1.9757
20143SOL    HW261871   6.854   1.037   4.700  0.7485  1.5530  1.1540
20144SOL     OW61872   4.956   6.724   4.431  0.3360  0.1191  0.3307
20144SOL    HW161873   4.955   6.760   4.520 -0.8239  0.6356  0.1358
20144SOL    HW261874   5.009   6.645   4.437  0.3084  0.1755  1.4766
20145SOL     OW61875   3.400   4.159   1.216 -0.9224  0.2158  0.2136
20145SOL    HW161876   3.480   4.189   1.261 -1.1832  1.0432  0.1293
20145SOL    HW261877   3.344   4.236   1.214 -1.4143 -0.1624 -0.4299
20146SOL     OW61878   0.323   0.985   9.422  0.4451  0.1193  0.7031
20146SOL    HW161879   0.411   1.015   9.397  0.3352 -0.4883 -0.5325
20146SOL    HW261880   0.337   0.933   9.501  1.1858  0.1317  0.5908
20147SOL     OW61881   0.311   5.104   6.849 -0.1147 -0.0806 -0.2427
20147SOL    HW161882   0.366   5.060   6.914 -0.7831 -0.0577  0.3652
20147SOL    HW261883   0.224   5.104   6.889  0.0722  3.0354  0.4656
20148SOL     OW61884   3.673   3.349  11.180  0.4931 -0.3157  0.1674
20148SOL    HW161885   3.752   3.360  11.128  0.6623  1.3124  0.7227
20148SOL    HW261886   3.669   3.255  11.198  3.3747 -0.2220  1.7475
20149SOL     OW61887   1.527   1.840  10.055  0.2229  0.9012  0.0032
20149SOL    HW161888   1.619   1.830  10.029 -0.3065  0.0281 -1.6627
20149SOL    HW261889   1.508   1.932  10.038  0.8288  1.1321  0.5340
20150SOL     OW61890   0.268   1.599   4.724 -0.5266  0.5552 -0.2001
20150SOL    HW161891   0.339   1.640   4.774 -1.0089  0.6400  0.4353
20150SOL    HW261892   0.310   1.529   4.675  0.0596  0.8526 -0.1362
20151SOL     OW61893   1.531   1.422  12.146 -0.4606  0.6143 -0.4913
20151SOL    HW161894   1.498   1.426  12.056 -0.9907 -0.3301 -0.3617
20151SOL    HW261895   1.497   1.339  12.179 -2.0787  1.9065  1.2962
20152SOL     OW61896   6.971   2.707   6.842  0.2537  0.2389 -0.1770
20152SOL    HW161897   6.993   2.637   6.902 -0.3732 -0.3995 -0.6751
20152SOL    HW261898   6.999   2.676   6.756 -1.5656 -0.1786 -0.6767
20153SOL     OW61899   1.017   3.364  12.291  0.0204 -0.1418 -0.3160
20153SOL    HW161900   0.932   3.327  12.315  0.5146 -0.6499  0.7107
20153SOL    HW261901   0.999   3.456  12.273 -0.4579  0.2520  1.8745
20154SOL     OW61902   0.444   1.445   5.659 -0.0785  0.1599  0.1073
20154SOL    HW161903   0.421   1.447   5.752 -0.2874  1.3445  0.0418
20154SOL    HW261904   0.391   1.515   5.620 -0.8309 -1.0405 -1.1058
20155SOL     OW61905   6.662   6.714   6.771 -0.3080  0.0975  0.3257
20155SOL    HW161906   6.657   6.810   6.766 -1.4162  0.0867  0.8548
20155SOL    HW261907   6.753   6.696   6.792 -0.1628  1.0535  0.5764
20156SOL     OW61908   2.467   6.052   6.018 -0.4576 -0.2528 -0.5623
20156SOL    HW161909   2.482   6.146   6.028  0.1839 -0.4359  0.3771
20156SOL    HW261910   2.518   6.013   6.089  1.7099 -1.5062 -2.6600
20157SOL     OW61911   3.356   5.976   8.457  0.2044  0.2479 -0.1496
20157SOL    HW161912   3.335   5.934   8.373 -1.3593 -0.9471  0.7820
20157SOL    HW261913   3.312   6.061   8.453  0.1178  0.1871 -0.5367
20158SOL     OW61914   3.160   2.543   2.979  0.7382  0.0849  0.3692
20158SOL    HW161915   3.091   2.545   2.912 -0.5170 -0.5719  1.5977
20158SOL    HW261916   3.235   2.585   2.937  0.0443 -0.4344 -1.5113
20159SOL     OW61917   0.687   7.918   9.241 -0.1678 -0.0206 -0.5226
20159SOL    HW161918   0.722   7.848   9.186 -0.1635  0.0436 -0.6016
20159SOL    HW261919   0.613   7.878   9.287  0.9311 -0.5994  0.8055
20160SOL     OW61920   2.914   6.223   2.680  0.6662  0.3063  0.1261
20160SOL    HW161921   2.992   6.270   2.709  0.1844  1.5168 -0.4848
20160SOL    HW261922   2.907   6.242   2.586  0.1255 -0.5042 -0.0127
20161SOL     OW61923   5.964   3.229   4.996  0.2028  0.0528 -0.7675
20161SOL    HW161924   6.020   3.300   5.027  0.4100 -1.3441  2.4448
20161SOL    HW261925   5.915   3.202   5.074 -0.3676 -2.8520 -2.0180
20162SOL     OW61926   7.909   3.795   7.415 -0.2123 -0.2552 -0.4053
20162SOL    HW161927   7.902   3.727   7.482  2.4891 -1.0191 -0.7760
20162SOL    HW261928   7.980   3.852   7.447 -0.1359  0.4086 -1.7229
20163SOL     OW61929   6.907   5.635   5.115  0.3008  0.0021 -0.1227
20163SOL    HW161930   6.972   5.620   5.184  0.9238  2.8929  0.0388
20163SOL    HW261931   6.954   5.620   5.034  1.0630  1.5084  0.0104
20164SOL     OW61932   4.286   6.649   8.295  0.0333 -0.1632  0.0370
20164SOL    HW161933   4.350   6.640   8.224 -0.7042 -0.1820 -0.6291
20164SOL    HW261934   4.229   6.572   8.286  0.1542 -0.3611  0.8771
20165SOL     OW61935   3.234   5.098   7.192 -0.1866 -0.4404  0.3186
20165SOL    HW161936   3.251   5.005   7.209 -0.0044 -0.5042 -0.1970
20165SOL    HW261937   3.209   5.134   7.278  1.9478 -0.4789  1.0205
20166SOL     OW61938   2.907   5.820   8.592  0.1641 -0.0170 -0.3793
20166SOL    HW161939   2.915   5.915   8.587  0.8220  0.0647  1.4690
20166SOL    HW261940   2.939   5.789   8.507  1.7606  1.3374 -0.3298
20167SOL     OW61941   1.259   1.182   3.858  0.1394 -0.3761 -0.1610
20167SOL    HW161942   1.294   1.126   3.928 -1.6507  1.9373  2.8168
20167SOL    HW261943   1.180   1.137   3.830 -1.1222  0.3338  1.9927
20168SOL     OW61944   2.772   0.906  11.727  0.2097 -0.7095  0.3057
20168SOL    HW161945   2.794   0.829  11.674  0.2684 -0.4072 -0.1164
20168SOL    HW261946   2.824   0.895  11.806 -0.0541 -1.2856  0.4099
20169SOL     OW61947   3.046   4.141   4.275 -0.0502 -0.2657  0.0782
20169SOL    HW161948   3.038   4.141   4.371 -0.0101 -1.5724  0.0859
20169SOL    HW261949   3.099   4.219   4.256  3.4548 -2.1326  1.4133
20170SOL     OW61950   5.679   4.712   6.618  0.0635 -0.3168  0.9788
20170SOL    HW161951   5.747   4.755   6.567 -2.3016  1.0236 -1.3173
20170SOL    HW261952   5.653   4.636   6.566 -1.2081  0.0673  1.0058
20171SOL     OW61953   6.943   5.858   4.453  0.5995  0.0564 -0.0481
20171SOL    HW161954   6.875   5.854   4.520  1.5376 -0.1984  0.9074
20171SOL    HW261955   7.020   5.893   4.498  1.0243  0.6691 -1.1869
20172SOL     OW61956   5.239   2.110   9.808 -0.2451 -0.0702  0.0431
20172SOL    HW161957   5.160   2.104   9.862 -1.3957  1.0038 -1.4313
20172SOL    HW261958   5.295   2.172   9.854 -0.4133 -0.5268  0.8943
20173SOL     OW61959   4.584   1.323   1.103 -0.0241  0.2712 -0.0361
20173SOL    HW161960   4.663   1.372   1.127  0.3887 -0.3203 -0.1759
20173SOL    HW261961   4.529   1.329   1.181 -0.2344  1.4501 -0.2535
20174SOL     OW61962   2.420   3.294   5.400  0.0802 -0.2607  0.1562
20174SOL    HW161963   2.379   3.361   5.344 -2.5724 -1.1210  0.9243
20174SOL    HW261964   2.513   3.312   5.393 -0.4675  3.4877  0.2500
20175SOL     OW61965   5.405   7.900   3.957 -0.1461 -0.0553  0.3549
20175SOL    HW161966   5.401   7.831   4.023 -0.2041 -0.3508  0.0418
20175SOL    HW261967   5.486   7.883   3.909 -0.0249  0.2504  0.4456
20176SOL     OW61968   0.878   3.573   4.823 -0.7973  0.5584  0.3833
20176SOL    HW161969   0.954   3.621   4.788  0.0441 -1.0123 -0.0333
20176SOL    HW261970   0.814   3.575   4.751 -0.7461  0.9673  0.3415
20177SOL     OW61971   3.951   6.297   9.201 -0.5024 -0.9496  0.1263
20177SOL    HW161972   4.023   6.258   9.251 -0.1124 -0.6895 -0.2265
20177SOL    HW261973   3.958   6.258   9.114  0.1532  0.1949 -0.3588
20178SOL     OW61974   2.862   5.915   7.748  0.1502  0.2843  0.3021
20178SOL    HW161975   2.911   5.942   7.826 -0.4927  0.4453  0.6508
20178SOL    HW261976   2.771   5.935   7.768 -0.1320 -0.5173 -0.1286
20179SOL     OW61977   7.699   5.681   3.306  0.4547  0.4626  0.3624
20179SOL    HW161978   7.720   5.711   3.218  0.9640 -1.6389 -0.2861
20179SOL    HW261979   7.647   5.602   3.293 -0.5082  0.7766  1.9778
20180SOL     OW61980   0.210   6.488   1.767 -0.2901  0.2108 -0.4615
20180SOL    HW161981   0.115   6.489   1.764 -0.3251 -1.2543 -0.9678
20180SOL    HW261982   0.237   6.572   1.730 -1.3796  0.7185 -0.1314
20181SOL     OW61983   0.973   5.508   4.066  0.3175  0.4504 -0.0908
20181SOL    HW161984   0.920   5.456   4.127  1.8338 -0.7836  0.2258
20181SOL    HW261985   1.049   5.535   4.118  0.5818  1.2271 -0.8567
20182SOL     OW61986   5.962   7.175   6.011 -0.0088  0.4561 -0.1504
20182SOL    HW161987   5.974   7.238   5.940  0.1522  1.0653  0.4086
20182SOL    HW261988   5.976   7.226   6.091  1.4453 -0.5649  0.2896
20183SOL     OW61989   1.325   5.885  11.766  0.9457 -0.1694  0.0315
20183SOL    HW161990   1.290   5.948  11.703  0.1527 -0.8381 -0.2161
20183SOL    HW261991   1.292   5.915  11.851  1.8235  0.5976  0.1280
20184SOL     OW61992   7.809   5.127   8.709 -0.0924  0.2535  0.2018
20184SOL    HW161993   7.814   5.200   8.771  1.0785 -0.8494  1.4998
20184SOL    HW261994   7.794   5.050   8.765  1.6946 -0.8781 -0.7692
20185SOL     OW61995   2.693   6.017   7.070 -0.1011  0.0449  0.5672
20185SOL    HW161996   2.767   5.965   7.099  0.3731  1.6587  2.4695
20185SOL    HW261997   2.652   6.049   7.151 -2.4062 -0.1365 -0.4435
20186SOL     OW61998   6.869   5.405   3.623  0.3029 -0.2560  0.0147
20186SOL    HW161999   6.874   5.437   3.713 -1.0512 -1.3129  0.5007
20186SOL    HW262000   6.935   5.335   3.619 -1.8110 -2.4866  1.2495
20187SOL     OW62001   4.606   5.216   8.609  0.2164  0.3246 -0.1914
20187SOL    HW162002   4.558   5.279   8.555  1.3559  0.3561 -1.1935
20187SOL    HW262003   4.585   5.131   8.570 -1.1040  0.0611  0.9960
20188SOL     OW62004   4.715   0.482   7.496  0.5773  0.1642 -0.1872
20188SOL    HW162005   4.802   0.520   7.481  0.3530  0.1289 -1.7718
20188SOL    HW262006   4.682   0.463   7.408 -0.4205 -1.2261  0.4576
20189SOL     OW62007   7.143   0.747  10.328  0.4722  0.0313  0.4160
20189SOL    HW162008   7.092   0.718  10.253  1.4935  0.1618 -0.3584
20189SOL    HW262009   7.096   0.823  10.362 -0.5507 -0.6438  0.5550
20190SOL     OW62010   3.108   4.154   0.971  0.1195 -0.3543 -0.3014
20190SOL    HW162011   3.095   4.115   0.885  0.4314 -2.0948  0.4120
20190SOL    HW262012   3.101   4.248   0.955 -2.6256 -0.6738 -1.7697
20191SOL     OW62013   2.400   2.319   6.373 -0.3660  0.1801  0.2211
20191SOL    HW162014   2.372   2.228   6.382 -0.2334  0.0569 -0.4807
20191SOL    HW262015   2.330   2.370   6.413 -0.3973 -0.2328  0.7030
20192SOL     OW62016   2.884   6.572   2.361 -0.2205  0.3158 -0.3835
20192SOL    HW162017   2.858   6.481   2.345  2.4018 -0.7484  0.7998
20192SOL    HW262018   2.887   6.580   2.457  0.9180  1.2118 -0.4734
20193SOL     OW62019   5.540   6.796  10.398  0.3091  0.4079 -0.2382
20193SOL    HW162020   5.472   6.808  10.331 -0.1628 -0.8195 -0.0015
20193SOL    HW262021   5.492   6.796  10.480  0.9750  2.7447  0.2224
20194SOL     OW62022   7.149   7.486   2.078  0.3508 -0.1731 -0.0736
20194SOL    HW162023   7.068   7.439   2.057 -0.5066  0.5808  1.3505
20194SOL    HW262024   7.133   7.576   2.051  1.5810 -0.4365 -1.8064
20195SOL     OW62025   0.154   5.916   3.717  0.1886  0.4201 -0.5034
20195SOL    HW162026   0.228   5.859   3.700 -0.1688 -2.5083  5.3097
20195SOL    HW262027   0.193   6.002   3.731  2.1382 -0.4164 -0.4205
20196SOL     OW62028   6.910   0.885   3.685  0.0175  0.1292  0.2333
20196SOL    HW162029   6.840   0.819   3.685 -0.3880  0.5509 -0.1508
20196SOL    HW262030   6.953   0.874   3.600  0.6622 -0.3800  0.6223
20197SOL     OW62031   1.308   0.552   8.604  0.3455 -0.5163 -0.0205
20197SOL    HW162032   1.375   0.550   8.673 -0.4348  4.1334  1.2285
20197SOL    HW262033   1.228   0.523   8.648  0.1278  1.1663  0.7896
20198SOL     OW62034   1.291   1.170   6.891 -0.5666 -0.0485  0.4645
20198SOL    HW162035   1.223   1.131   6.945 -0.6163 -0.6823 -0.0359
20198SOL    HW262036   1.373   1.141   6.930 -0.5734  0.9324  1.2230
20199SOL     OW62037   4.913   4.867   2.128 -0.2048  0.0794  0.0308
20199SOL    HW162038   4.990   4.923   2.136 -0.6879  0.8857 -0.7874
20199SOL    HW262039   4.851   4.901   2.192 -0.8297  1.0648 -1.0679
20200SOL     OW62040   0.802   7.930   3.874  0.4037  0.2108  0.8155
20200SOL    HW162041   0.768   7.916   3.786  0.0511 -0.4373  1.0437
20200SOL    HW262042   0.893   7.954   3.861  0.6130 -0.7846  0.2991
20201SOL     OW62043   0.602   0.723   3.499 -0.4807  0.2727  0.3521
20201SOL    HW162044   0.582   0.721   3.592 -0.3540  1.5799  0.4242
20201SOL    HW262045   0.528   0.678   3.457 -0.8736  0.2761  1.0323
20202SOL     OW62046   5.950   1.435  10.931  0.2789 -0.0305 -0.0051
20202SOL    HW162047   5.866   1.427  10.977  0.5060  0.2785  0.4648
20202SOL    HW262048   6.015   1.404  10.994  0.5275 -0.2371 -0.3567
20203SOL     OW62049   5.380   5.388  11.699  0.3801 -0.4306  0.8009
20203SOL    HW162050   5.432   5.310  11.680  2.4026  0.8620  0.7870
20203SOL    HW262051   5.443   5.460  11.700 -1.5431  1.3870 -0.2261
20204SOL     OW62052   1.887   7.196   2.087  0.3064  0.2997  0.3415
20204SOL    HW162053   1.833   7.118   2.078 -0.1530  0.5588  0.8067
20204SOL    HW262054   1.850   7.258   2.024  1.1145 -0.0815 -0.5480
20205SOL     OW62055   3.216   3.608  12.271  0.4023  0.2007 -0.3932
20205SOL    HW162056   3.132   3.597  12.226  0.0415 -1.6893  0.6464
20205SOL    HW262057   3.193   3.646  12.356  0.3751 -1.7602  0.5180
20206SOL     OW62058   5.892   3.421   1.046 -0.5022  0.0202 -0.8966
20206SOL    HW162059   5.958   3.483   1.078 -0.8474  0.6662 -1.4014
20206SOL    HW262060   5.809   3.460   1.074 -0.6748 -0.8753 -0.1112
20207SOL     OW62061   4.616   3.865  12.376  0.2824 -0.1689  0.0979
20207SOL    HW162062   4.589   3.885  12.286 -0.2773 -0.3146  0.2289
20207SOL    HW262063   4.645   3.948  12.412  1.2030 -0.2366 -0.4476
20208SOL     OW62064   2.616   5.548  11.432  0.6910 -0.4478 -0.0383
20208SOL    HW162065   2.571   5.483  11.377  2.0119 -1.1883 -0.2805
20208SOL    HW262066   2.582   5.632  11.402 -2.5600 -1.0050  1.5968
20209SOL     OW62067   6.315   4.177   2.318 -0.2927 -0.5031  0.0010
20209SOL    HW162068   6.325   4.091   2.358  4.3999  0.0826  0.5759
20209SOL    HW262069   6.297   4.236   2.392 -1.0189 -0.6313 -0.0667
20210SOL     OW62070   3.218   1.888   1.679  0.0379  0.0355  0.3528
20210SOL    HW162071   3.285   1.828   1.710 -0.9628 -1.3979 -0.1719
20210SOL    HW262072   3.173   1.917   1.758  2.4795  2.6386  0.9568
20211SOL     OW62073   1.533   0.162   1.079  0.4721 -0.1595 -0.1177
20211SOL    HW162074   1.620   0.186   1.047  0.5730 -0.9348 -0.4474
20211SOL    HW262075   1.487   0.246   1.089  1.4470  0.3117  0.6416
20212SOL     OW62076   7.215   3.764   4.163  0.5813 -0.1254 -0.9303
20212SOL    HW162077   7.277   3.732   4.098  2.2433 -1.6427  1.2166
20212SOL    HW262078   7.145   3.698   4.164  1.6446 -1.2970  0.2354
20213SOL     OW62079   2.636   4.734  11.897 -0.1172 -0.4089  0.4751
20213SOL    HW162080   2.651   4.791  11.972  0.0382  1.7684 -1.1211
20213SOL    HW262081   2.545   4.706  11.905  0.3255 -1.4831  2.2541
20214SOL     OW62082   0.113   1.489   3.757 -0.0003 -0.0779  0.1653
20214SOL    HW162083   0.149   1.401   3.769 -0.4281 -0.2604  0.1452
20214SOL    HW262084   0.179   1.548   3.794  0.2760 -0.4096  0.2023
20215SOL     OW62085   3.111   6.908   6.781 -0.1014  0.4075  0.6111
20215SOL    HW162086   3.139   6.890   6.871 -0.1348 -0.0880  0.5201
20215SOL    HW262087   3.029   6.860   6.771 -0.5555  1.1623  0.5937
20216SOL     OW62088   0.399   4.531   8.879  0.2898  0.3431  0.1001
20216SOL    HW162089   0.392   4.436   8.871  1.1083  0.3871 -1.5904
20216SOL    HW262090   0.309   4.560   8.894  0.0001 -0.6693  0.4530
20217SOL     OW62091   0.847   7.025   3.193  0.0951 -0.4419  0.1485
20217SOL    HW162092   0.851   7.072   3.109  0.5200  0.8074  0.8377
20217SOL    HW262093   0.767   7.059   3.235  0.2151 -0.5953  0.5023
20218SOL     OW62094   3.692   2.533   7.815  0.0778  0.5918 -0.6500
20218SOL    HW162095   3.751   2.556   7.744  1.2672  1.0984  0.4594
20218SOL    HW262096   3.739   2.467   7.865 -0.7745  0.1798 -0.3672
20219SOL     OW62097   5.325   6.991   6.032  0.2573 -0.1127 -0.5104
20219SOL    HW162098   5.352   7.038   5.953  0.2299  0.6777 -0.0572
20219SOL    HW262099   5.304   7.060   6.095  1.8068 -0.7061  0.7227
20220SOL     OW62100   7.760   3.127  11.732  0.1662 -0.2451 -0.9934
20220SOL    HW162101   7.729   3.199  11.787 -0.8280 -0.8485 -0.7460
20220SOL    HW262102   7.791   3.061  11.795 -0.3971 -0.6824 -1.1698
20221SOL     OW62103   5.424   3.179   0.637  0.7326 -0.1336  0.0337
20221SOL    HW162104   5.377   3.220   0.709  1.0337  0.1426  0.0747
20221SOL    HW262105   5.367   3.190   0.561  0.5726 -0.1175  0.1551
20222SOL     OW62106   0.462   7.787   9.054  0.2104 -0.1676 -0.0939
20222SOL    HW162107   0.514   7.707   9.067  0.7154 -0.0421 -1.2654
20222SOL    HW262108   0.396   7.783   9.124  0.6200 -1.2831  0.2621
20223SOL     OW62109   7.198   6.126   9.234  0.7470  0.2633  0.0386
20223SOL    HW162110   7.206   6.219   9.254  1.2465  0.3988 -0.7470
20223SOL    HW262111   7.260   6.111   9.162 -0.7577 -0.2342 -1.2236
20224SOL     OW62112   5.275   2.336   8.113  0.2182  0.7842  0.0148
20224SOL    HW162113   5.225   2.402   8.064 -0.8137 -0.2098 -0.2987
20224SOL    HW262114   5.210   2.273   8.142  1.3075 -0.6718 -0.5879
20225SOL     OW62115   7.025   7.195   0.173  0.0557 -0.1739 -0.8285
20225SOL    HW162116   7.089   7.235   0.114 -1.0185  2.8005 -0.1597
20225SOL    HW262117   6.942   7.205   0.127 -0.7113  1.5957  0.8172
20226SOL     OW62118   3.558   7.703   4.818  0.2223  0.1517 -0.0820
20226SOL    HW162119   3.622   7.707   4.747 -0.1996  0.0254 -0.4698
20226SOL    HW262120   3.473   7.707   4.775 -0.0380  0.5024  0.4433
20227SOL     OW62121   0.456   0.123   3.421  0.1035  0.0164 -0.0351
20227SOL    HW162122   0.536   0.175   3.431  0.8217 -0.5766 -2.1463
20227SOL    HW262123   0.400   0.176   3.365 -0.5640 -0.0357  0.5732
20228SOL     OW62124   0.869   1.290   5.445  0.2384  0.1798  0.2847
20228SOL    HW162125   0.930   1.231   5.400  0.6643  1.7986 -1.3938
20228SOL    HW262126   0.926   1.348   5.497  0.1015  1.1228 -0.5846
20229SOL     OW62127   2.393   2.734   2.621  0.0875  0.0718  0.5028
20229SOL    HW162128   2.437   2.820   2.619 -1.9728  1.1758 -0.3141
20229SOL    HW262129   2.302   2.754   2.601 -1.0784 -1.9698  3.2603
20230SOL     OW62130   5.386   3.044   0.142  0.6228  0.3755 -0.6413
20230SOL    HW162131   5.394   3.105   0.069  1.6564 -1.0604 -1.7980
20230SOL    HW262132   5.449   3.076   0.207  0.6013  0.9600 -0.8993
20231SOL     OW62133   5.292   2.608  11.508  0.1631 -0.5657  0.1588
20231SOL    HW162134   5.254   2.520  11.510 -1.8930  0.2570  0.2063
20231SOL    HW262135   5.269   2.642  11.422  0.8805 -0.0453  0.1635
20232SOL     OW62136   1.844   5.497   8.474  0.3859 -0.2045 -0.0600
20232SOL    HW162137   1.803   5.583   8.470  0.0332 -0.4100 -2.2749
20232SOL    HW262138   1.800   5.453   8.547  0.0724  1.2269  0.6476
20233SOL     OW62139   0.803   3.037   4.087 -0.3430 -1.1178 -0.1579
20233SOL    HW162140   0.895   3.019   4.108 -0.8113 -0.3769  3.0989
20233SOL    HW262141   0.807   3.111   4.026  1.2734  0.5273  1.7895
20234SOL     OW62142   2.181   6.290   5.496 -0.3071  0.1894 -0.3033
20234SOL    HW162143   2.087   6.281   5.512 -0.1001 -1.5905  0.1829
20234SOL    HW262144   2.200   6.381   5.518 -1.6075  0.1164  1.3836
20235SOL     OW62145   5.731   7.946  11.250  0.2391  0.3763 -0.1085
20235SOL    HW162146   5.751   7.917  11.339  3.4175  0.0526 -0.8043
20235SOL    HW262147   5.672   7.879  11.215  1.2590 -1.0728  0.8382
20236SOL     OW62148   0.088   6.785   2.824  0.3120 -0.3249 -0.6045
20236SOL    HW162149   0.151   6.784   2.896 -0.6622 -0.1085  0.2809
20236SOL    HW262150   0.003   6.797   2.866 -0.4757 -1.7638 -1.6578
20237SOL     OW62151   5.075   7.695   9.562  0.2195  0.3457  0.0560
20237SOL    HW162152   5.009   7.742   9.509 -0.3874  1.2973  1.5769
20237SOL    HW262153   5.026   7.624   9.603  1.1935 -1.9969 -2.4682
20238SOL     OW62154   1.613   1.327   9.848  0.1765  0.1075  0.4457
20238SOL    HW162155   1.573   1.309   9.763 -0.0171 -0.8469  0.7335
20238SOL    HW262156   1.635   1.241   9.884 -2.6854  0.1799  2.7775
20239SOL     OW62157   2.719   1.781   8.098 -0.2944  0.0776 -0.1784
20239SOL    HW162158   2.767   1.774   8.015  1.5228 -1.3674  0.8949
20239SOL    HW262159   2.767   1.723   8.158 -2.9972 -0.8522  1.2303
20240SOL     OW62160   7.803   2.043  10.221 -0.5976 -0.0099 -0.0239
20240SOL    HW162161   7.861   2.113  10.251  2.1130 -2.0829  0.0157
20240SOL    HW262162   7.827   2.031  10.129 -1.8189 -0.1720 -0.3312
20241SOL     OW62163   4.358   0.050  10.108  0.7207  0.4889  0.0151
20241SOL    HW162164   4.343  -0.042  10.086 -1.0260  0.3644  1.5244
20241SOL    HW262165   4.421   0.048  10.180 -2.6026  0.0668  3.1694
20242SOL     OW62166   3.483   0.356   8.181  0.0781 -0.0648  0.3226
20242SOL    HW162167   3.544   0.427   8.161 -0.4124  0.8013  1.7432
20242SOL    HW262168   3.399   0.385   8.145  0.2952 -0.9025 -0.9357
20243SOL     OW62169   6.574   3.612  11.440  0.0832 -0.1847  0.6695
20243SOL    HW162170   6.633   3.685  11.458 -0.2950 -0.2080  2.0929
20243SOL    HW262171   6.607   3.540  11.494  0.8844 -1.3350 -1.2416
20244SOL     OW62172   5.053   3.808   0.883 -0.7399 -0.1063 -0.0942
20244SOL    HW162173   5.003   3.816   0.802 -0.9388  0.3168  0.0667
20244SOL    HW262174   5.052   3.715   0.903 -0.3359 -0.2686 -0.7959
20245SOL     OW62175   7.869   1.873   1.256  0.3635 -0.2383 -0.2760
20245SOL    HW162176   7.835   1.954   1.293 -1.2311 -0.7798 -0.4690
20245SOL    HW262177   7.902   1.824   1.330 -1.5781 -0.7440  0.3057
20246SOL     OW62178   0.963   1.607  11.367  0.3180  0.5521  0.3228
20246SOL    HW162179   1.022   1.576  11.435  1.2897  2.9774  0.6993
20246SOL    HW262180   0.974   1.544  11.295  0.6269 -1.0312  1.6912
20247SOL     OW62181   4.259   6.235   2.772  0.0070  0.6703 -0.9399
20247SOL    HW162182   4.206   6.261   2.848  1.2993  1.2625 -0.2063
20247SOL    HW262183   4.224   6.150   2.747 -0.3520  0.3782  0.4352
20248SOL     OW62184   3.877   4.914  11.587 -0.4681  0.0231  0.4142
20248SOL    HW162185   3.807   4.867  11.542 -1.0003 -0.6101  1.8747
20248SOL    HW262186   3.920   4.848  11.641  0.2871  0.7276  0.6975
20249SOL     OW62187   3.334   7.215   6.962 -0.1411  0.0053 -0.4510
20249SOL    HW162188   3.311   7.185   7.050 -0.1584  0.0302 -0.4474
20249SOL    HW262189   3.251   7.223   6.916 -0.2231  1.0924 -0.1248
20250SOL     OW62190   5.720   3.646  12.206  0.5307  0.0218 -0.1257
20250SOL    HW162191   5.676   3.719  12.162 -1.2936 -0.1220  1.3083
20250SOL    HW262192   5.671   3.569  12.180  1.9801 -0.6317 -1.0237
20251SOL     OW62193   7.905   5.243   7.365 -0.6581 -0.3586 -0.2149
20251SOL    HW162194   7.940   5.289   7.442  0.5315 -1.3739 -0.1236
20251SOL    HW262195   7.980   5.230   7.308 -1.3836 -0.3515 -1.2023
20252SOL     OW62196   2.517   6.954  11.722 -0.0382 -0.0192  0.3424
20252SOL    HW162197   2.489   6.863  11.725  0.2135 -0.2409 -2.1556
20252SOL    HW262198   2.601   6.952  11.676 -0.4426  1.5430 -0.5254
20253SOL     OW62199   4.844   5.879  10.018 -0.1813  0.3565 -0.3846
20253SOL    HW162200   4.924   5.849  10.062 -0.1487 -0.6642 -1.1215
20253SOL    HW262201   4.773   5.849  10.074 -0.0728  1.1374  0.1941
20254SOL     OW62202   6.145   0.424   6.225 -0.4129  0.2920  0.1630
20254SOL    HW162203   6.070   0.405   6.280 -0.0074 -1.9655  0.0392
20254SOL    HW262204   6.210   0.463   6.284 -1.7364  2.6556  0.1873
20255SOL     OW62205   5.909   4.081   2.871 -0.0533 -0.3077  0.2982
20255SOL    HW162206   5.964   4.054   2.797 -1.4487 -1.2135 -0.4617
20255SOL    HW262207   5.922   4.176   2.877  0.3156 -0.2537 -0.9483
20256SOL     OW62208   5.115   6.127   6.821 -0.0714 -0.3850 -0.1546
20256SOL    HW162209   5.055   6.147   6.892 -0.0636 -2.1091  0.3848
20256SOL    HW262210   5.059   6.115   6.744 -0.2486 -0.3172 -0.0362
20257SOL     OW62211   7.712   2.564   5.771  0.5128  0.3436  0.2302
20257SOL    HW162212   7.766   2.633   5.733 -0.7508  0.8442 -0.7425
20257SOL    HW262213   7.694   2.504   5.698  1.7698 -1.1731  1.1037
20258SOL     OW62214   1.996   4.671   3.256  0.1631 -0.0145  0.4964
20258SOL    HW162215   2.032   4.742   3.203  0.4727  0.4807  1.3430
20258SOL    HW262216   1.984   4.599   3.195  1.7020  0.1196 -0.0043
20259SOL     OW62217   5.702   3.379   5.996  0.1648  0.4476  0.4627
20259SOL    HW162218   5.756   3.431   6.056 -0.2784  0.7981  0.5592
20259SOL    HW262219   5.652   3.443   5.946  0.5854  0.1602 -0.3493
20260SOL     OW62220   5.894   2.388  11.097 -0.0308  0.4923  0.2544
20260SOL    HW162221   5.945   2.307  11.108  0.9728  1.1648  0.7212
20260SOL    HW262222   5.803   2.359  11.099  0.2173 -0.4196  2.7569
20261SOL     OW62223   2.179   0.964   0.646 -0.5378  0.6625 -0.3416
20261SOL    HW162224   2.199   1.057   0.643 -0.7439  0.7467  0.5591
20261SOL    HW262225   2.125   0.953   0.724  0.5367 -0.4076  0.2897
20262SOL     OW62226   7.475   1.554   5.096 -0.4906  0.3305 -0.1443
20262SOL    HW162227   7.419   1.504   5.037  0.4638  0.9658 -1.6496
20262SOL    HW262228   7.458   1.645   5.075  0.8557  0.5430 -0.4269
20263SOL     OW62229   4.138   1.801  10.404 -0.5580 -0.0001 -0.3165
20263SOL    HW162230   4.071   1.850  10.357 -1.9077 -0.5904  0.9263
20263SOL    HW262231   4.100   1.714  10.416  0.6089 -0.4757  0.0249
20264SOL     OW62232   2.612   4.902   1.011 -0.5202 -0.8968 -0.0661
20264SOL    HW162233   2.643   4.990   0.988  0.5102 -1.6161 -1.6287
20264SOL    HW262234   2.517   4.906   0.999 -0.7459  0.4936  1.7401
20265SOL     OW62235   2.174   4.432   4.047 -0.3000  0.4066 -0.2070
20265SOL    HW162236   2.117   4.502   4.015  2.0083  1.7957 -1.6100
20265SOL    HW262237   2.125   4.352   4.033 -2.3889  1.6069 -0.1094
20266SOL     OW62238   2.320   0.176   9.996 -0.2673  0.0127 -0.7667
20266SOL    HW162239   2.314   0.132   9.912  2.2671 -1.2077 -0.4120
20266SOL    HW262240   2.253   0.135  10.050 -0.3136 -0.9142 -1.5115
20267SOL     OW62241   0.277   7.182   4.116  1.0003  0.1158 -0.0023
20267SOL    HW162242   0.239   7.104   4.157  2.2054 -0.4044  0.1636
20267SOL    HW262243   0.287   7.244   4.189  0.5289  0.2359 -0.0376
20268SOL     OW62244   6.273   4.983   5.379 -0.2564 -0.4581 -0.0691
20268SOL    HW162245   6.189   5.017   5.348  0.2798  0.5741 -0.3963
20268SOL    HW262246   6.336   5.051   5.359  0.3227 -0.2548  2.1439
20269SOL     OW62247   5.585   0.063   5.110  0.2305 -0.2047  0.2064
20269SOL    HW162248   5.564   0.075   5.202  0.4559 -0.1604  0.2516
20269SOL    HW262249   5.644  -0.012   5.108  2.4658  1.4499  0.3922
20270SOL     OW62250   6.659   0.302   9.961  0.0234  0.1832 -0.2821
20270SOL    HW162251   6.692   0.221   9.921 -1.2428 -1.5910  1.9640
20270SOL    HW262252   6.661   0.284  10.055 -2.0661  2.0368  0.1956
20271SOL     OW62253   0.510   2.718   4.771 -0.1689 -0.2534 -0.1750
20271SOL    HW162254   0.477   2.765   4.848  1.7344 -0.4226  0.8226
20271SOL    HW262255   0.433   2.676   4.733 -1.0190 -1.1867  2.3609
20272SOL     OW62256   5.572   0.757   8.179 -0.1270  0.7185  0.3803
20272SOL    HW162257   5.550   0.847   8.156 -3.6219  0.0208  0.5795
20272SOL    HW262258   5.596   0.761   8.272 -1.2351  1.3113  0.6456
20273SOL     OW62259   3.973   3.890   8.105  0.2328  0.3993  0.4309
20273SOL    HW162260   3.926   3.973   8.099  0.6180  0.5870 -0.0276
20273SOL    HW262261   4.054   3.904   8.056  0.9950  0.2281  1.5883
20274SOL     OW62262   7.368   5.400   9.907 -0.8187 -0.1561  0.2132
20274SOL    HW162263   7.409   5.353   9.979  0.1059 -0.9159 -0.7781
20274SOL    HW262264   7.301   5.339   9.874 -0.2953 -0.3832 -0.4414
20275SOL     OW62265   5.217   5.101   9.648  0.1754  0.4715 -0.0234
20275SOL    HW162266   5.302   5.129   9.614  0.6435  0.9719  1.4955
20275SOL    HW262267   5.238   5.049   9.725 -0.8201 -1.4785 -0.9992
20276SOL     OW62268   1.204   1.666   1.931 -0.1104 -0.3705 -0.0924
20276SOL    HW162269   1.188   1.597   1.995 -0.4787  0.6305  0.9091
20276SOL    HW262270   1.188   1.624   1.846 -1.2576 -1.2527  0.5416
20277SOL     OW62271   1.564   4.936   4.680  0.4124 -0.0006  0.0258
20277SOL    HW162272   1.513   4.942   4.761  2.0492 -0.6199  1.1474
20277SOL    HW262273   1.500   4.950   4.610 -1.3243 -0.9919  1.3486
20278SOL     OW62274   2.262   3.575   6.483 -0.0870 -0.1830 -0.7909
20278SOL    HW162275   2.224   3.501   6.434 -1.5903  1.4624 -2.2398
20278SOL    HW262276   2.334   3.605   6.428  0.6124 -0.6237 -0.1345
20279SOL     OW62277   3.016   3.273   4.196 -0.0243 -0.0491  0.3974
20279SOL    HW162278   3.041   3.283   4.104 -1.8814 -0.2790 -0.1746
20279SOL    HW262279   3.038   3.182   4.216 -1.4098 -0.6038 -0.4497
20280SOL     OW62280   2.603   6.051   1.103  0.2903  0.2895 -0.0570
20280SOL    HW162281   2.623   6.129   1.050 -3.5550 -0.2670 -2.7640
20280SOL    HW262282   2.607   5.978   1.041 -2.2947 -0.7010  0.7894
20281SOL     OW62283   4.188   0.737   2.464 -0.6810  0.1073  0.3868
20281SOL    HW162284   4.127   0.810   2.469 -0.8306 -0.0608  1.2534
20281SOL    HW262285   4.237   0.742   2.546  1.6406  1.2417 -0.9832
20282SOL     OW62286   1.547   1.679   2.406 -0.2499 -0.2175 -0.2324
20282SOL    HW162287   1.487   1.728   2.462  0.1680  0.1527 -0.1079
20282SOL    HW262288   1.490   1.619   2.357 -0.6679 -0.2204  0.2463
20283SOL     OW62289   3.588   1.952   2.159  0.1355 -0.4162  0.7934
20283SOL    HW162290   3.614   2.007   2.084  0.4424 -2.1549 -0.4255
20283SOL    HW262291   3.543   2.013   2.218 -0.3670  0.9670 -0.9149
20284SOL     OW62292   6.037   4.961   3.397 -0.2232  0.2474  0.0028
20284SOL    HW162293   5.961   4.909   3.372  0.3252 -0.0560 -1.0792
20284SOL    HW262294   6.035   4.961   3.493  0.2017 -2.4801  0.1067
20285SOL     OW62295   3.050   0.014   2.536 -0.5071  0.0632 -0.4317
20285SOL    HW162296   3.091   0.017   2.622 -0.5562  0.9158 -0.4308
20285SOL    HW262297   2.978  -0.047   2.546 -1.5490  1.4061  0.6040
20286SOL     OW62298   5.937   0.790   8.307  0.4388  0.0950  0.1642
20286SOL    HW162299   5.960   0.712   8.256 -0.3119 -0.4870  0.6952
20286SOL    HW262300   5.858   0.765   8.354  0.9210  0.7361  1.3512
20287SOL     OW62301   1.265   6.169  11.232  0.4932 -0.1597 -0.0138
20287SOL    HW162302   1.218   6.165  11.149 -3.4433  0.3998  1.9319
20287SOL    HW262303   1.298   6.259  11.237 -2.0200  0.8354  0.2325
20288SOL     OW62304   3.551   0.005   1.240 -0.0062 -0.2930 -0.1035
20288SOL    HW162305   3.491   0.072   1.273  1.1125  0.8364 -0.3073
20288SOL    HW262306   3.493  -0.064   1.207 -1.2125  0.8768 -0.5324
20289SOL     OW62307   6.440   2.531  11.277  0.1130 -0.6315 -0.2074
20289SOL    HW162308   6.450   2.615  11.322  0.6356 -0.3359 -0.8580
20289SOL    HW262309   6.469   2.548  11.187 -1.6466 -0.9976 -0.8889
20290SOL     OW62310   3.731   2.601   6.688 -0.6968  0.2322  0.1231
20290SOL    HW162311   3.821   2.587   6.718 -1.6225 -1.4660  2.4101
20290SOL    HW262312   3.701   2.678   6.737 -0.5592  0.7360 -0.5630
20291SOL     OW62313   0.708   7.849   1.340 -0.3224  0.0238 -0.3461
20291SOL    HW162314   0.721   7.762   1.378  1.1851  1.0863  1.7943
20291SOL    HW262315   0.676   7.832   1.251 -1.7833 -2.6602  0.5745
20292SOL     OW62316   7.675   2.784   9.887 -0.1734 -0.0488  0.4169
20292SOL    HW162317   7.613   2.725   9.844 -1.5303  0.8475  1.0532
20292SOL    HW262318   7.628   2.867   9.892  1.2566  0.7641  0.5734
20293SOL     OW62319   3.922   1.939   0.030  0.4529 -0.3748 -0.6955
20293SOL    HW162320   3.932   2.033   0.042 -1.0332  0.1856 -3.1743
20293SOL    HW262321   3.923   1.903   0.119  2.6724  1.7337  0.2436
20294SOL     OW62322   1.599   7.441   0.698 -0.2161 -0.1731 -0.4284
20294SOL    HW162323   1.602   7.421   0.792  0.3923  2.4233  0.1800
20294SOL    HW262324   1.676   7.398   0.662 -0.1794 -0.7843  0.3481
20295SOL     OW62325   2.627   7.817   9.721  0.3221 -0.1164  0.5753
20295SOL    HW162326   2.680   7.871   9.663 -1.4177  0.2156 -0.7672
20295SOL    HW262327   2.591   7.878   9.785  0.4913 -0.1284  0.6829
20296SOL     OW62328   1.837   0.380   3.049  0.6918  0.0819 -0.0060
20296SOL    HW162329   1.762   0.436   3.069 -0.4931 -2.4367  3.5694
20296SOL    HW262330   1.849   0.390   2.954 -3.0808  1.8712 -0.4956
20297SOL     OW62331   0.696   3.398   0.408  0.5679  0.4223  0.4750
20297SOL    HW162332   0.699   3.460   0.336  0.6984 -0.7327 -0.5352
20297SOL    HW262333   0.670   3.315   0.368  0.6818 -0.2512  1.7467
20298SOL     OW62334   2.258   6.539   0.969  0.1272  0.4799 -0.7114
20298SOL    HW162335   2.246   6.600   0.896  1.5947  0.2969 -1.1541
20298SOL    HW262336   2.183   6.480   0.965 -1.4338  2.3612 -0.1360
20299SOL     OW62337   7.307   6.898   0.917  0.4544  0.0893  0.5452
20299SOL    HW162338   7.305   6.913   0.822  2.5304  0.8575  0.5692
20299SOL    HW262339   7.387   6.941   0.946  1.2930 -2.4232  2.2472
20300SOL     OW62340   2.590   1.241   7.275 -0.2228  0.4377 -0.3628
20300SOL    HW162341   2.672   1.227   7.227  0.6797  0.5875  1.0955
20300SOL    HW262342   2.548   1.314   7.229  0.1831  0.0074 -1.4571
20301SOL     OW62343   0.593   4.432   9.554 -0.0884 -0.0316 -0.5585
20301SOL    HW162344   0.581   4.345   9.591 -3.3308  0.8167  0.7470
20301SOL    HW262345   0.601   4.489   9.630 -2.3178  1.2107 -1.1516
20302SOL     OW62346   0.773   3.858   7.539  0.3824  0.5835 -0.3618
20302SOL    HW162347   0.771   3.774   7.493 -0.8573 -0.0073  0.7123
20302SOL    HW262348   0.783   3.923   7.469  1.1084 -0.4180 -1.2294
20303SOL     OW62349   4.738   3.348   7.890  0.2689  0.0653 -0.1042
20303SOL    HW162350   4.736   3.358   7.795  1.5269  0.0919 -0.1457
20303SOL    HW262351   4.773   3.260   7.905  1.6200  0.6471  0.3228
20304SOL     OW62352   1.058   6.698   4.316 -0.0809  0.2070  0.2734
20304SOL    HW162353   1.105   6.654   4.388 -0.3191  0.0410  0.3281
20304SOL    HW262354   0.966   6.677   4.331  0.0036 -1.4775 -1.1680
20305SOL     OW62355   5.941   7.048   0.187  0.3043 -0.1103 -0.1751
20305SOL    HW162356   5.848   7.063   0.205  0.2394 -0.4402 -0.2335
20305SOL    HW262357   5.980   7.030   0.272 -0.0485 -1.9325 -0.3670
20306SOL     OW62358   4.476   7.108   9.419  0.7461 -0.4434  0.2664
20306SOL    HW162359   4.389   7.114   9.459  0.5444  0.4634 -0.2979
20306SOL    HW262360   4.514   7.029   9.458 -0.1763 -0.6378  0.8093
20307SOL     OW62361   6.595   2.018   9.410 -0.3293  0.6403  0.3338
20307SOL    HW162362   6.589   2.006   9.504 -2.3437 -0.3379  0.1188
20307SOL    HW262363   6.658   1.952   9.381  0.2797  0.9289  0.9542
20308SOL     OW62364   0.997   4.133   7.655 -0.5737 -0.2976 -0.0669
20308SOL    HW162365   0.932   4.127   7.725 -0.6628 -0.2502 -0.1458
20308SOL    HW262366   1.073   4.175   7.696 -0.4283 -0.7565  0.1437
20309SOL     OW62367   4.985   5.149   1.292  0.4257 -0.2294 -0.8450
20309SOL    HW162368   4.967   5.106   1.209 -1.3064 -3.0611  0.8334
20309SOL    HW262369   5.043   5.088   1.339  3.2443  2.3083 -0.6906
20310SOL     OW62370   7.648   3.571  10.533  0.2732 -0.0166 -1.0690
20310SOL    HW162371   7.689   3.650  10.498  0.3991  0.1338 -0.5869
20310SOL    HW262372   7.554   3.587  10.524  0.2283  0.9704  0.6642
20311SOL     OW62373   2.999   4.445   0.259 -0.1734 -0.1283 -0.5916
20311SOL    HW162374   2.928   4.471   0.317 -0.5542 -0.2327 -1.0019
20311SOL    HW262375   3.063   4.516   0.265  0.5095 -0.8452  1.1186
20312SOL     OW62376   6.153   1.667   8.092 -0.1239 -0.0672 -0.5684
20312SOL    HW162377   6.199   1.737   8.046 -1.4767  0.1053 -1.7172
20312SOL    HW262378   6.222   1.622   8.142  0.7885  2.0790  0.2339
20313SOL     OW62379   5.247   4.306  12.349  0.2383 -0.6729 -0.2857
20313SOL    HW162380   5.236   4.215  12.321 -4.2228 -0.2846 -0.5427
20313SOL    HW262381   5.207   4.358  12.279 -2.2448  0.9993  2.1534
20314SOL     OW62382   5.942   2.011   2.614 -0.0963  0.1598 -0.0819
20314SOL    HW162383   5.985   1.951   2.674  0.0101  0.4062  0.0903
20314SOL    HW262384   5.903   2.078   2.670 -2.1356 -0.9237 -0.1093
20315SOL     OW62385   1.614   2.544   1.830 -0.1885  0.8153 -0.6084
20315SOL    HW162386   1.639   2.601   1.902 -0.7987 -0.5414  0.7484
20315SOL    HW262387   1.696   2.523   1.785  0.3734  0.7577  0.4154
20316SOL     OW62388   1.425   6.016   2.872 -0.1193 -0.2063 -0.4476
20316SOL    HW162389   1.480   5.964   2.814  0.5883  0.1914 -0.1439
20316SOL    HW262390   1.338   6.016   2.830 -0.1131 -1.5446 -0.4946
20317SOL     OW62391   5.317   0.042  11.302  0.3652 -0.1286  0.0609
20317SOL    HW162392   5.402   0.083  11.312  0.0666  0.6428 -0.4940
20317SOL    HW262393   5.311  -0.020  11.375  1.1387  0.2511  0.4524
20318SOL     OW62394   2.836   5.112   3.288  0.1417  0.6774 -1.0978
20318SOL    HW162395   2.775   5.149   3.224  0.3399  2.1861 -0.4693
20318SOL    HW262396   2.833   5.173   3.361 -0.5375 -1.2963  0.6279
20319SOL     OW62397   3.647   4.088   0.382  0.9473  0.4810  0.6347
20319SOL    HW162398   3.598   4.081   0.300 -1.1681 -0.8129  1.9316
20319SOL    HW262399   3.738   4.070   0.357  0.5842  1.3395 -1.5863
20320SOL     OW62400   7.452   2.979   8.216  0.7431 -0.1543 -0.0876
20320SOL    HW162401   7.516   3.050   8.213  0.6323 -0.0713 -2.9580
20320SOL    HW262402   7.500   2.901   8.186  0.2903 -0.8238  0.8551
20321SOL     OW62403   7.088   4.705   3.167  0.1783  0.0883  0.1051
20321SOL    HW162404   7.118   4.644   3.235 -0.7418 -0.6868 -0.1698
20321SOL    HW262405   6.999   4.727   3.194  0.4471  1.2070  0.1147
20322SOL     OW62406   7.173   1.998   2.603  0.1407  0.4333  0.1940
20322SOL    HW162407   7.203   2.081   2.564  1.8722 -0.5190 -0.6129
20322SOL    HW262408   7.227   1.988   2.682  0.3684 -0.1913 -0.0330
20323SOL     OW62409   6.156   5.404   4.462 -0.0854 -0.6096 -0.3525
20323SOL    HW162410   6.111   5.371   4.384 -0.4908  1.0563 -0.8711
20323SOL    HW262411   6.134   5.341   4.531 -1.4752 -0.9822 -1.0927
20324SOL     OW62412   5.156   1.525   5.129 -0.0073 -0.0107 -0.4982
20324SOL    HW162413   5.067   1.557   5.123 -0.6648 -1.0740  2.0724
20324SOL    HW262414   5.151   1.451   5.190  2.7468  0.4570  0.4584
20325SOL     OW62415   7.712   6.075   6.522  0.1826 -0.1610  0.0355
20325SOL    HW162416   7.744   6.159   6.555 -0.9124 -0.1459  1.1502
20325SOL    HW262417   7.756   6.010   6.577  1.4897 -0.3862 -1.2163
20326SOL     OW62418   5.862   0.992   3.186  0.6385 -0.4266  0.4068
20326SOL    HW162419   5.842   0.996   3.280  1.0087 -1.8621  0.5687
20326SOL    HW262420   5.900   0.906   3.173 -0.2301 -0.6021 -1.2467
20327SOL     OW62421   1.751   6.965   1.976  0.5843 -0.0572 -0.4501
20327SOL    HW162422   1.674   6.941   1.925  1.6135 -1.7796 -1.2856
20327SOL    HW262423   1.755   6.900   2.046  0.5171  0.8760  0.4566
20328SOL     OW62424   7.173   7.799   4.752 -0.1213 -0.1451  0.0683
20328SOL    HW162425   7.153   7.892   4.744 -1.1632 -0.3124  0.4633
20328SOL    HW262426   7.229   7.793   4.830  1.5277  0.3398 -1.0477
20329SOL     OW62427   5.413   5.403   5.136  0.5926  0.9641  0.0839
20329SOL    HW162428   5.428   5.476   5.076  0.8297  1.0430  0.2397
20329SOL    HW262429   5.473   5.335   5.106  0.0811  0.6800 -0.3162
20330SOL     OW62430   4.769   4.027   1.904  0.4157  0.1482 -0.6482
20330SOL    HW162431   4.782   3.952   1.846 -0.0434 -0.8881  0.5436
20330SOL    HW262432   4.757   4.101   1.845 -0.6416 -0.9711 -1.9065
20331SOL     OW62433   5.515   4.698   6.828  0.0382  0.4056 -0.0832
20331SOL    HW162434   5.432   4.719   6.784 -0.7500 -3.1375 -0.5648
20331SOL    HW262435   5.578   4.691   6.756  0.4243  1.4379  0.1290
20332SOL     OW62436   6.171   7.752  10.936 -0.1636 -0.4850  0.0329
20332SOL    HW162437   6.114   7.821  10.903  0.0088 -0.4440 -0.1865
20332SOL    HW262438   6.157   7.679  10.876  2.8726  0.7791 -2.4746
20333SOL     OW62439   4.026   0.353   7.914 -0.2942  0.0371  0.0153
20333SOL    HW162440   4.086   0.290   7.953 -0.1215 -0.1653 -0.5679
20333SOL    HW262441   3.940   0.331   7.952 -0.1491 -0.2209  0.1966
20334SOL     OW62442   6.808   4.539   1.807  0.1343 -0.3114  0.1874
20334SOL    HW162443   6.804   4.459   1.860  2.3176  0.1993  1.2399
20334SOL    HW262444   6.833   4.509   1.720 -1.0730 -0.9299  0.0316
20335SOL     OW62445   4.630   6.848  11.941  0.1568 -0.1550  0.7105
20335SOL    HW162446   4.710   6.795  11.939  0.1745 -0.1703  1.4029
20335SOL    HW262447   4.575   6.805  12.007 -1.1953 -1.2169 -1.0393
20336SOL     OW62448   4.069   1.151  10.633 -0.3851 -0.3361  0.2751
20336SOL    HW162449   4.036   1.214  10.697 -0.5562  0.0112 -0.1490
20336SOL    HW262450   4.023   1.069  10.654 -0.2755 -0.2808  0.7302
20337SOL     OW62451   4.562   3.972   2.974  0.0247  0.3231 -0.2666
20337SOL    HW162452   4.636   3.993   3.032 -0.5692 -1.0245  1.0322
20337SOL    HW262453   4.589   3.892   2.929 -1.0365 -0.8342  1.0553
20338SOL     OW62454   6.642   4.374   9.694  0.0487 -0.2039  0.4268
20338SOL    HW162455   6.555   4.414   9.700  0.6887  1.4393 -0.4058
20338SOL    HW262456   6.682   4.389   9.779  0.6349  1.9467 -0.1583
20339SOL     OW62457   5.337   5.311   4.675 -0.0680  0.0047 -0.1351
20339SOL    HW162458   5.295   5.274   4.598  0.2000  2.4407 -1.5422
20339SOL    HW262459   5.430   5.311   4.655  0.1275 -0.4749  0.7203
20340SOL     OW62460   4.403   2.790   7.816 -0.1361 -0.1642  0.6255
20340SOL    HW162461   4.378   2.841   7.739 -0.3237 -0.9013  0.1905
20340SOL    HW262462   4.389   2.849   7.890 -0.9349  0.2102  0.1852
20341SOL     OW62463   2.070   7.734   5.917 -0.4743  0.4167 -0.1966
20341SOL    HW162464   2.032   7.646   5.909 -0.3667  0.3296  0.2107
20341SOL    HW262465   2.109   7.752   5.832  0.0526 -0.1875 -0.0878
20342SOL     OW62466   7.902   6.799   7.248  0.3477 -0.4579  0.4712
20342SOL    HW162467   7.995   6.777   7.252  0.0719 -1.4550  2.4853
20342SOL    HW262468   7.900   6.886   7.207  2.2278 -0.0573  1.1325
20343SOL     OW62469   5.153   5.836   1.401  0.2525 -0.1732  0.2457
20343SOL    HW162470   5.221   5.775   1.431  0.4949  0.2477  0.5781
20343SOL    HW262471   5.135   5.809   1.311  2.9245  1.4430 -0.9143
20344SOL     OW62472   1.065   4.129  10.263  0.1714  0.5476  0.7462
20344SOL    HW162473   1.088   4.193  10.196  2.0462  0.9659  1.7263
20344SOL    HW262474   0.981   4.160  10.297 -2.2286 -1.0688 -3.0057
20345SOL     OW62475   7.293   4.014   6.142  0.1107 -0.2619 -0.3318
20345SOL    HW162476   7.259   3.933   6.181 -1.1629 -2.1524 -4.7630
20345SOL    HW262477   7.365   3.985   6.086  0.2426  1.8169 -1.3280
20346SOL     OW62478   0.235   2.132   4.930  0.1425  0.1508 -0.1148
20346SOL    HW162479   0.260   2.140   5.022 -1.3309 -0.4664  0.3659
20346SOL    HW262480   0.233   2.038   4.914 -0.4530  0.2245 -0.5236
20347SOL     OW62481   2.021   7.074  11.082 -0.7933 -0.3018 -0.2503
20347SOL    HW162482   2.025   7.163  11.048 -1.1568 -0.0609  0.3244
20347SOL    HW262483   1.999   7.020  11.006 -0.4254  0.0725 -0.6312
20348SOL     OW62484   3.908   7.765   9.438  0.2214 -0.7265 -0.5057
20348SOL    HW162485   3.963   7.694   9.473 -1.3015 -0.9778  1.5917
20348SOL    HW262486   3.819   7.730   9.442 -0.2916  0.2751 -2.2412
20349SOL     OW62487   5.858   3.520   2.311  0.0825  0.0637 -0.5400
20349SOL    HW162488   5.935   3.520   2.254 -0.0741  0.2496 -0.7522
20349SOL    HW262489   5.889   3.562   2.392  0.3640 -0.4008 -0.4034
20350SOL     OW62490   1.341   2.057   4.725  0.1892  0.6862  0.2927
20350SOL    HW162491   1.283   2.117   4.678 -0.9577  0.6597  1.6067
20350SOL    HW262492   1.375   1.999   4.657  1.2376  2.6925 -0.9901
20351SOL     OW62493   2.855   5.770  11.832 -0.1542  0.0022  0.0154
20351SOL    HW162494   2.772   5.787  11.788 -0.5198  0.9405  1.0060
20351SOL    HW262495   2.831   5.753  11.923  0.6355 -1.1925  0.0305
20352SOL     OW62496   3.425   0.984   8.893 -0.4864  0.2160  0.2639
20352SOL    HW162497   3.466   0.989   8.979 -1.1639  0.8376  0.5570
20352SOL    HW262498   3.473   1.048   8.840  1.1796 -1.4488 -0.3921
20353SOL     OW62499   3.084   6.932   0.031  0.2625  0.1144 -0.3082
20353SOL    HW162500   3.050   6.907  -0.056 -0.9356 -0.7101  0.3556
20353SOL    HW262501   3.166   6.883   0.039  0.3927  0.2078 -0.9778
20354SOL     OW62502   7.466   4.653  10.192  0.1316 -0.0827 -0.1027
20354SOL    HW162503   7.373   4.674  10.185  0.2087  1.0634  1.6730
20354SOL    HW262504   7.492   4.685  10.278  2.2373 -0.1433 -0.6429
20355SOL     OW62505   6.398   1.324   1.753  0.0586  0.0368  0.1023
20355SOL    HW162506   6.376   1.242   1.709  0.5855  0.5525 -1.1674
20355SOL    HW262507   6.455   1.370   1.691 -2.5642  2.6768 -0.5823
20356SOL     OW62508   6.040   2.851   7.580  0.3567  0.7329  0.2607
20356SOL    HW162509   6.032   2.858   7.485 -1.5500 -1.8603  0.1179
20356SOL    HW262510   6.035   2.941   7.611 -0.3294  1.5636 -2.0219
20357SOL     OW62511   2.512   2.706   9.456  0.4094 -0.4220  0.0724
20357SOL    HW162512   2.468   2.756   9.525  1.5093  0.2392  0.3238
20357SOL    HW262513   2.462   2.725   9.377  1.1575  1.6673  0.0250
20358SOL     OW62514   3.343   3.602  11.520  0.0366 -0.1108  0.1431
20358SOL    HW162515   3.329   3.628  11.429  0.5548 -0.0123  0.0890
20358SOL    HW262516   3.436   3.580  11.524 -0.2319 -1.2577  0.3604
20359SOL     OW62517   5.067   0.174   3.598  0.3507  0.1076 -0.0621
20359SOL    HW162518   5.153   0.172   3.641  0.4533  1.9060 -0.1211
20359SOL    HW262519   5.075   0.243   3.531 -0.9426 -0.1471 -0.5085
20360SOL     OW62520   1.379   2.834   5.309  0.2427 -0.3102  0.0036
20360SOL    HW162521   1.307   2.872   5.359  0.6671  2.1302 -1.0817
20360SOL    HW262522   1.372   2.873   5.222  2.9586  0.1836 -0.0861
20361SOL     OW62523   7.428   1.472   7.059  0.8791  0.2697 -0.2832
20361SOL    HW162524   7.467   1.389   7.033  0.1182 -0.6650  1.3387
20361SOL    HW262525   7.485   1.505   7.129  0.0166 -0.0047  0.5765
20362SOL     OW62526   2.214   4.070  10.378  0.2668 -0.4147  0.2262
20362SOL    HW162527   2.190   3.978  10.379 -0.4787 -0.2427 -0.4966
20362SOL    HW262528   2.295   4.075  10.429  0.7740 -1.5867 -0.4368
20363SOL     OW62529   3.305   1.919  10.777 -0.0400 -0.3358  0.0062
20363SOL    HW162530   3.321   1.981  10.849  0.1891 -0.2375 -0.1283
20363SOL    HW262531   3.255   1.848  10.817  3.0872 -2.0981  1.1876
20364SOL     OW62532   2.112   2.788  12.231 -0.4704  0.0155  0.0240
20364SOL    HW162533   2.176   2.845  12.273  0.0743 -1.8093  1.8079
20364SOL    HW262534   2.031   2.802  12.280 -1.2269  1.5200 -1.5503
20365SOL     OW62535   5.354   4.748   0.577  0.2046 -0.1556 -0.5180
20365SOL    HW162536   5.332   4.827   0.528 -0.3152 -0.2863 -0.5102
20365SOL    HW262537   5.273   4.697   0.576 -0.3936  0.5870  1.8974
20366SOL     OW62538   0.122   1.834   4.050 -0.2625  0.1322  0.2973
20366SOL    HW162539   0.154   1.924   4.060  1.0237 -0.2982  0.3351
20366SOL    HW262540   0.154   1.789   4.128  0.6745 -0.7642 -0.5813
20367SOL     OW62541   7.434   1.483   8.333  0.5773  0.1575 -0.0007
20367SOL    HW162542   7.499   1.449   8.272 -0.5773 -2.5270  0.1311
20367SOL    HW262543   7.373   1.531   8.278  2.1053  1.9379 -0.2393
20368SOL     OW62544   1.047   1.877   5.587  0.3307  0.5441 -0.3295
20368SOL    HW162545   1.126   1.878   5.641  0.4940 -1.2704 -0.4754
20368SOL    HW262546   0.983   1.927   5.638  1.1005  0.6766  0.5455
20369SOL     OW62547   1.583   6.674   6.659 -1.0614  0.5163 -0.3949
20369SOL    HW162548   1.601   6.664   6.753 -2.1367 -1.4185 -0.3461
20369SOL    HW262549   1.654   6.730   6.627 -0.5449  1.0416  1.5227
20370SOL     OW62550   6.100   7.696   2.827 -0.1100 -0.1654 -0.0691
20370SOL    HW162551   6.041   7.691   2.752 -1.8983 -0.6821  1.3217
20370SOL    HW262552   6.155   7.617   2.818  0.4072  0.3046 -1.3526
20371SOL     OW62553   4.876   6.935   2.673 -0.3312  0.1873  0.1724
20371SOL    HW162554   4.966   6.911   2.692 -0.4769 -2.2477 -1.7045
20371SOL    HW262555   4.823   6.871   2.721 -0.9880  0.5388 -0.0699
20372SOL     OW62556   4.667   2.449   4.256  0.3268 -0.2885  0.2477
20372SOL    HW162557   4.645   2.373   4.311 -0.0679 -0.4078 -0.0744
20372SOL    HW262558   4.644   2.525   4.309  0.5124 -0.3975  0.4841
20373SOL     OW62559   3.076   3.092   5.152 -0.0571  0.7733  0.0713
20373SOL    HW162560   3.121   3.164   5.108  0.4637  0.2371 -0.2877
20373SOL    HW262561   3.090   3.108   5.245  0.3945  0.9127 -0.0211
20374SOL     OW62562   5.114   2.078   1.673 -0.0338  0.0070 -0.0302
20374SOL    HW162563   5.040   2.118   1.719 -0.1868 -1.1289  0.7363
20374SOL    HW262564   5.091   2.084   1.581 -1.4083 -0.9254  0.2219
20375SOL     OW62565   2.119   0.588   9.118  0.1419  0.6536 -0.4374
20375SOL    HW162566   2.212   0.568   9.130 -0.0438  0.5362  0.9474
20375SOL    HW262567   2.102   0.659   9.178 -0.5357  1.1165 -1.1613
20376SOL     OW62568   2.584   3.599   3.659 -0.4703  0.2388  0.2057
20376SOL    HW162569   2.590   3.666   3.591 -0.4102 -1.8040 -1.9242
20376SOL    HW262570   2.492   3.571   3.658 -0.6633  0.7173  1.5744
20377SOL     OW62571   7.547   7.032   1.145 -0.3251  0.7391 -0.1931
20377SOL    HW162572   7.515   6.942   1.143 -0.8997  0.9586 -1.3124
20377SOL    HW262573   7.528   7.062   1.234  0.3791 -0.4065  0.3687
20378SOL     OW62574   0.152   3.247  11.998  0.3812 -0.6158 -0.1042
20378SOL    HW162575   0.069   3.230  12.043  0.3418 -0.2985 -0.0547
20378SOL    HW262576   0.207   3.172  12.020  0.4621 -0.3325  0.7252
20379SOL     OW62577   5.820   3.728  11.569  0.0978  0.1047 -0.4761
20379SOL    HW162578   5.821   3.665  11.496 -1.1485 -0.2175 -0.2347
20379SOL    HW262579   5.802   3.675  11.646  0.1677  0.6135 -0.1079
20380SOL     OW62580   2.345   4.078   4.246 -0.1305 -0.6083  0.5133
20380SOL    HW162581   2.270   4.138   4.247 -0.0093 -0.4371 -0.3865
20380SOL    HW262582   2.421   4.135   4.256  0.3134 -0.0541 -4.0181
20381SOL     OW62583   1.217   2.356   2.221 -0.1972 -0.2679  0.3397
20381SOL    HW162584   1.196   2.354   2.314  0.8093  1.1699  0.6309
20381SOL    HW262585   1.179   2.438   2.190 -2.0695 -1.5428 -0.9522
20382SOL     OW62586   5.062   0.643   5.221  0.2118 -0.4222  0.1263
20382SOL    HW162587   4.983   0.590   5.210 -0.0794 -0.3931  1.8360
20382SOL    HW262588   5.127   0.582   5.257  0.2866  0.0576  0.8191
20383SOL     OW62589   2.393   4.092  11.289 -0.5963  0.3780 -0.8237
20383SOL    HW162590   2.418   4.079  11.380  0.8838 -0.2118 -1.2713
20383SOL    HW262591   2.303   4.124  11.292 -1.0527 -0.9530  0.7734
20384SOL     OW62592   5.672   1.809   8.812  0.3713  0.2546  0.4266
20384SOL    HW162593   5.594   1.800   8.756  0.0355 -2.3788  1.1928
20384SOL    HW262594   5.745   1.782   8.755  0.7733  2.5337 -0.2298
20385SOL     OW62595   6.047   3.217   0.582 -0.1645 -0.0441  0.2904
20385SOL    HW162596   5.973   3.230   0.523 -0.1734 -1.2479  0.0091
20385SOL    HW262597   6.013   3.161   0.652  0.1727  0.3656  0.7905
20386SOL     OW62598   2.871   2.262   0.672 -0.1485  0.4344  0.0068
20386SOL    HW162599   2.876   2.322   0.598  0.5586 -0.9877 -1.1324
20386SOL    HW262600   2.956   2.272   0.716 -0.2989  0.7569  0.2335
20387SOL     OW62601   1.861   2.579   2.655 -0.2182 -0.4839  0.7543
20387SOL    HW162602   1.942   2.630   2.658 -0.1017 -0.5900 -0.2229
20387SOL    HW262603   1.833   2.583   2.563 -2.4502  1.2809  1.4053
20388SOL     OW62604   3.333   7.163  10.287 -0.2206  0.6500 -0.0449
20388SOL    HW162605   3.290   7.180  10.203 -0.4497  0.5470  0.0521
20388SOL    HW262606   3.427   7.172  10.267 -0.3321  2.2834  0.0784
20389SOL     OW62607   2.573   0.528  10.827 -0.4769 -0.2954 -0.0954
20389SOL    HW162608   2.608   0.567  10.907  0.4537 -1.3663  0.0466
20389SOL    HW262609   2.508   0.591  10.796 -0.6577  0.2692  1.3459
20390SOL     OW62610   3.191   2.574   1.706 -0.5298  0.5111 -0.1077
20390SOL    HW162611   3.171   2.658   1.665  2.3437  0.9397 -0.8692
20390SOL    HW262612   3.217   2.518   1.633 -0.0327 -0.2682  0.6511
20391SOL     OW62613   6.781   1.635   1.354 -0.4361  0.0670  0.0416
20391SOL    HW162614   6.716   1.670   1.294  0.2194 -0.9039 -1.2791
20391SOL    HW262615   6.788   1.542   1.332 -0.3698 -0.3872  1.8117
20392SOL     OW62616   3.373   6.283   6.804  0.0027 -0.0196  0.2564
20392SOL    HW162617   3.461   6.248   6.819 -0.2264 -0.3257  0.9264
20392SOL    HW262618   3.314   6.214   6.833 -0.4985 -0.5036 -1.7774
20393SOL     OW62619   0.239   0.920   3.015 -0.3239 -0.0773  0.0731
20393SOL    HW162620   0.249   1.014   3.031  0.7939  0.0654 -1.3282
20393SOL    HW262621   0.189   0.889   3.091 -1.5541  1.7940  0.1028
20394SOL     OW62622   0.585   6.987  10.209 -0.3914 -0.0880 -0.1985
20394SOL    HW162623   0.522   7.057  10.191  0.0025  0.0635 -1.0421
20394SOL    HW262624   0.549   6.910  10.166 -0.0749 -0.0336 -0.5662
20395SOL     OW62625   1.509   0.349  11.883  0.2516  0.2378  0.8694
20395SOL    HW162626   1.433   0.295  11.906 -0.6636  1.4434  0.8141
20395SOL    HW262627   1.553   0.300  11.814 -1.6168  0.3908 -0.5297
20396SOL     OW62628   7.629   5.261   1.902 -0.5535  0.1034  0.3633
20396SOL    HW162629   7.721   5.273   1.878 -0.2529  1.7642  2.1345
20396SOL    HW262630   7.604   5.342   1.946 -2.9032 -0.3017 -0.0674
20397SOL     OW62631   1.862   6.024   2.391 -0.0477 -0.0729 -0.3684
20397SOL    HW162632   1.813   5.989   2.466  0.2093 -0.3555 -0.3300
20397SOL    HW262633   1.805   6.007   2.316  0.1383 -0.7166 -0.3680
20398SOL     OW62634   0.742   3.805  11.090 -0.4021  0.0282  0.1442
20398SOL    HW162635   0.799   3.753  11.146  2.0541  0.2880 -1.9656
20398SOL    HW262636   0.758   3.895  11.116 -0.3059  0.0753 -0.0852
20399SOL     OW62637   0.151   2.672  10.185  0.0695  0.1961  0.1703
20399SOL    HW162638   0.221   2.609  10.169  1.1748  1.1957  0.9785
20399SOL    HW262639   0.091   2.659  10.111  1.3176 -0.3622 -0.7928
20400SOL     OW62640   5.203   2.690   9.299  0.1776 -0.6204 -0.4409
20400SOL    HW162641   5.166   2.689   9.387 -1.2416  3.4256 -0.7984
20400SOL    HW262642   5.293   2.721   9.312 -0.1252  0.2654 -0.4029
20401SOL     OW62643   0.800   0.247  12.185 -0.5876  0.2824 -0.3110
20401SOL    HW162644   0.799   0.200  12.268 -0.6092  0.8086 -0.0069
20401SOL    HW262645   0.890   0.276  12.174  0.4566 -3.2188 -2.4766
20402SOL     OW62646   3.077   0.425   8.253  0.2759  0.8862  0.2760
20402SOL    HW162647   3.140   0.436   8.182 -1.2439  1.6405 -1.0285
20402SOL    HW262648   3.001   0.384   8.211  0.3525 -1.2478  2.0722
20403SOL     OW62649   6.349   5.739   8.912 -0.1161  0.5878 -0.2041
20403SOL    HW162650   6.311   5.812   8.864  0.6808 -0.0666 -1.9351
20403SOL    HW262651   6.319   5.661   8.865  1.3022 -0.0551 -0.1044
20404SOL     OW62652   7.124   3.526   6.327 -0.3085  0.0643 -0.0606
20404SOL    HW162653   7.104   3.528   6.233 -1.0495  1.2498  0.1023
20404SOL    HW262654   7.206   3.573   6.336 -1.1359  1.5352  0.0631
20405SOL     OW62655   2.057   1.544   0.046 -0.0362  0.0720  0.1160
20405SOL    HW162656   2.126   1.487   0.079 -0.4625 -0.1670  0.6104
20405SOL    HW262657   2.075   1.629   0.086  0.7713  0.3732 -0.8546
20406SOL     OW62658   2.929   1.700   7.140  0.1651 -0.1457  0.3080
20406SOL    HW162659   2.995   1.631   7.153  1.5504  0.9037 -0.8373
20406SOL    HW262660   2.973   1.765   7.085 -0.5428  2.4056  2.5258
20407SOL     OW62661   3.291   6.892   6.373  0.6133 -0.2184 -0.7659
20407SOL    HW162662   3.197   6.911   6.379  0.4912 -0.8161 -0.6981
20407SOL    HW262663   3.304   6.863   6.283  1.0591  1.4997 -1.2903
20408SOL     OW62664   4.039   2.093   6.133 -0.3924 -0.3941  0.6949
20408SOL    HW162665   4.008   2.173   6.176  2.6489  1.0408  0.4847
20408SOL    HW262666   4.060   2.120   6.044  0.1235 -1.5485  0.4466
20409SOL     OW62667   1.058   4.904   4.470 -0.1810  0.0479  0.1562
20409SOL    HW162668   1.028   4.973   4.529 -0.3863 -0.1809  0.3225
20409SOL    HW262669   1.154   4.914   4.467 -0.2831  0.8871 -0.5126
20410SOL     OW62670   6.276   2.253   8.264 -0.0468  0.2887 -0.4728
20410SOL    HW162671   6.329   2.230   8.340 -0.3015  1.8670  0.2238
20410SOL    HW262672   6.212   2.182   8.257  0.0601  0.0545  0.7162
20411SOL     OW62673   6.298   5.678   0.114  0.1937  0.6032  0.6052
20411SOL    HW162674   6.342   5.709   0.035 -1.0370  1.1504  0.1064
20411SOL    HW262675   6.255   5.597   0.088 -1.1864  1.3710  0.3377
20412SOL     OW62676   0.802   4.702   4.512  0.2826  0.2170 -0.2683
20412SOL    HW162677   0.818   4.735   4.601  2.8610  1.7904 -1.2125
20412SOL    HW262678   0.888   4.677   4.480 -0.6223 -0.5192 -2.2955
20413SOL     OW62679   3.479   6.698  10.149  0.4547  0.5504  0.4115
20413SOL    HW162680   3.453   6.612  10.116  0.7518  1.6777 -3.0845
20413SOL    HW262681   3.471   6.757  10.075  2.8244  3.0691  1.9307
20414SOL     OW62682   3.221   4.714  10.333 -0.2366  0.4724  0.2820
20414SOL    HW162683   3.138   4.689  10.373 -1.0149  0.4144 -1.2819
20414SOL    HW262684   3.248   4.794  10.379 -1.1799  0.5198  0.7648
20415SOL     OW62685   6.788   5.592   3.310  0.1484 -0.3379  0.2491
20415SOL    HW162686   6.781   5.601   3.215  0.9970  0.2046  0.2268
20415SOL    HW262687   6.717   5.534   3.334 -0.2730 -0.2224 -0.6847
20416SOL     OW62688   3.801   6.468   5.587  0.1423 -0.2988  0.2219
20416SOL    HW162689   3.812   6.382   5.546  1.0510  0.2472 -0.7185
20416SOL    HW262690   3.714   6.498   5.558  0.9590  0.2856 -1.7535
20417SOL     OW62691   5.900   5.748   9.677 -0.5934 -0.0568  0.2135
20417SOL    HW162692   5.922   5.823   9.731 -1.3633 -0.3652  0.9646
20417SOL    HW262693   5.963   5.681   9.703 -2.2038 -0.8817  2.2432
20418SOL     OW62694   2.964   6.261   5.775  0.0105  0.7623 -0.0885
20418SOL    HW162695   3.056   6.265   5.750  0.1213  1.1480  0.3630
20418SOL    HW262696   2.950   6.170   5.801  0.6871  1.0370  1.3710
20419SOL     OW62697   2.502   6.024   9.526 -0.5670  0.1078  0.2895
20419SOL    HW162698   2.537   6.107   9.558  0.7643  0.9841 -2.9631
20419SOL    HW262699   2.446   6.049   9.452  0.1759 -1.8407 -1.0120
20420SOL     OW62700   5.482   7.871  11.546  0.6567  0.2480  0.0026
20420SOL    HW162701   5.544   7.922  11.599  0.9564  2.8145 -2.5630
20420SOL    HW262702   5.396   7.901  11.575  0.7015 -0.4462  0.8999
20421SOL     OW62703   1.479   7.620   7.002 -0.1061  0.5125 -0.3436
20421SOL    HW162704   1.499   7.559   7.073  0.6072 -0.4351 -1.3411
20421SOL    HW262705   1.400   7.665   7.031  1.3756  1.7565  2.0718
20422SOL     OW62706   0.935   4.193   1.623 -0.3293  0.0373  0.4044
20422SOL    HW162707   1.018   4.159   1.590 -0.0841  1.6215 -0.6742
20422SOL    HW262708   0.893   4.232   1.547  0.1319  3.6030  1.8084
20423SOL     OW62709   4.130   7.785   3.955 -0.6228 -0.4940  0.2011
20423SOL    HW162710   4.082   7.838   4.019 -0.1383 -1.8575  1.7468
20423SOL    HW262711   4.204   7.839   3.929 -0.4879 -0.1495  1.2638
20424SOL     OW62712   5.126   6.140   8.640 -0.4053  0.2811 -0.3935
20424SOL    HW162713   5.189   6.071   8.621  0.8547  1.1338  0.4913
20424SOL    HW262714   5.057   6.129   8.575  0.4753 -0.9089 -1.1608
20425SOL     OW62715   1.424   6.542   8.866 -1.1274 -0.0064  0.0561
20425SOL    HW162716   1.374   6.621   8.885 -2.2318 -0.9941  1.4456
20425SOL    HW262717   1.498   6.545   8.927 -0.9763  0.1108 -0.1305
20426SOL     OW62718   2.982   4.339  10.401  0.0628  0.0320 -0.0987
20426SOL    HW162719   2.906   4.376  10.445 -0.0217  0.0968 -0.2967
20426SOL    HW262720   2.956   4.250  10.377  0.5104 -0.4073  0.9945
20427SOL     OW62721   6.444   4.843   8.388  0.1024 -0.0067 -0.2839
20427SOL    HW162722   6.470   4.797   8.308 -0.2195  0.9164 -0.9289
20427SOL    HW262723   6.355   4.813   8.404 -0.5253  1.2179 -1.3411
20428SOL     OW62724   2.709   1.779  10.873  0.2755  0.1812  0.0898
20428SOL    HW162725   2.760   1.710  10.914  1.1226  1.3960  1.1790
20428SOL    HW262726   2.618   1.748  10.876  0.5831 -0.6697  0.9838
20429SOL     OW62727   3.706   1.325   4.595 -0.0330  0.1763 -0.0141
20429SOL    HW162728   3.760   1.401   4.617 -1.2736  1.5021 -1.4223
20429SOL    HW262729   3.617   1.359   4.588 -1.2005 -1.9972  2.4487
20430SOL     OW62730   0.274   1.012  10.491  0.2167 -0.0095  0.7902
20430SOL    HW162731   0.217   0.950  10.445  1.1819 -0.9155  0.7631
20430SOL    HW262732   0.289   0.972  10.577  0.6660  0.2876  0.8558
20431SOL     OW62733   1.409   0.236   8.919  0.0305  0.1224  0.0536
20431SOL    HW162734   1.451   0.297   8.859  0.3144 -0.0523  0.0731
20431SOL    HW262735   1.481   0.184   8.955 -0.3145 -1.0877 -0.9261
20432SOL     OW62736   2.838   0.911  12.326 -0.1084  0.0898 -0.3888
20432SOL    HW162737   2.793   0.854  12.263  0.2668 -0.0110 -0.5669
20432SOL    HW262738   2.827   0.867  12.410 -0.4823  0.1470 -0.4083
20433SOL     OW62739   2.903   2.486   9.431  0.0544  0.6504 -0.3933
20433SOL    HW162740   2.850   2.407   9.441 -0.3593  1.0578  0.8221
20433SOL    HW262741   2.991   2.454   9.411 -0.0730 -0.1165  0.2620
20434SOL     OW62742   4.044   6.593   4.481  0.5246 -0.4721 -0.3468
20434SOL    HW162743   4.063   6.602   4.575 -1.5507 -1.8201  0.2715
20434SOL    HW262744   4.033   6.499   4.467 -2.1075 -0.1292 -1.2380
20435SOL     OW62745   7.504   4.405   4.583 -0.5904 -0.6333 -0.0307
20435SOL    HW162746   7.529   4.493   4.614 -0.5379 -0.7414  0.2350
20435SOL    HW262747   7.471   4.420   4.495 -0.1071 -0.4090 -0.1830
20436SOL     OW62748   1.463   2.050   1.438  0.5671 -0.3965 -0.1716
20436SOL    HW162749   1.410   1.990   1.490  0.7522 -0.5288 -0.1361
20436SOL    HW262750   1.462   2.132   1.488  1.6597 -0.8456  0.6080
20437SOL     OW62751   4.254   6.605   8.993 -0.2620 -0.5943 -0.3168
20437SOL    HW162752   4.225   6.606   9.085 -0.0496  1.6037 -0.1983
20437SOL    HW262753   4.348   6.589   8.998 -0.0526  0.5819 -0.0167
20438SOL     OW62754   2.470   7.481   3.253 -0.0556  0.3457  0.1162
20438SOL    HW162755   2.538   7.472   3.186  0.1014 -1.1975  0.4460
20438SOL    HW262756   2.444   7.391   3.272 -1.1138  0.8435  1.1005
20439SOL     OW62757   3.525   0.897   0.798 -0.2479  0.2713 -0.1819
20439SOL    HW162758   3.554   0.879   0.709  1.0731 -0.1949  0.3208
20439SOL    HW262759   3.605   0.917   0.846 -1.0481  1.6217  0.6675
20440SOL     OW62760   3.734   6.669  11.855 -0.3668  0.2926 -0.2610
20440SOL    HW162761   3.734   6.759  11.823  1.8440  1.4130  2.5294
20440SOL    HW262762   3.807   6.627  11.808 -0.3249  0.4484 -0.3358
20441SOL     OW62763   1.395   5.936  10.659  0.3819 -0.2065  0.3364
20441SOL    HW162764   1.416   5.845  10.683 -1.3679 -0.6692  0.2517
20441SOL    HW262765   1.471   5.986  10.688  1.0283 -1.5881  1.1472
20442SOL     OW62766   0.701   7.882   2.404  0.4131  0.0889 -0.0484
20442SOL    HW162767   0.776   7.823   2.394  1.2559  0.7348  1.9769
20442SOL    HW262768   0.652   7.847   2.479 -0.5388  0.4703 -0.4762
20443SOL     OW62769   0.122   4.668  10.861 -0.1265  0.0034 -0.0857
20443SOL    HW162770   0.177   4.613  10.805  0.6813 -0.5976  1.2695
20443SOL    HW262771   0.043   4.684  10.808  0.6987 -0.3549 -1.4756
20444SOL     OW62772   7.036   6.242  10.520 -0.1887  0.3011  0.3953
20444SOL    HW162773   7.072   6.323  10.483  1.7319 -0.4615  0.4742
20444SOL    HW262774   7.080   6.172  10.473  1.4630 -0.7079  3.2003
20445SOL     OW62775   1.601   7.948   6.349 -0.1689 -0.4300 -0.2994
20445SOL    HW162776   1.642   8.017   6.297 -2.0409 -0.7334 -2.3192
20445SOL    HW262777   1.569   7.992   6.427 -1.4124  1.1008 -1.5915
20446SOL     OW62778   7.026   7.176   9.106  0.3224  0.3228 -0.7923
20446SOL    HW162779   6.975   7.139   9.178 -0.4833 -0.7605 -1.8887
20446SOL    HW262780   7.085   7.239   9.148  1.3755 -1.8015  1.0889
20447SOL     OW62781   3.336   7.284  11.939 -0.0618  0.3252 -0.4469
20447SOL    HW162782   3.246   7.280  11.969 -0.5720 -0.5781 -1.9612
20447SOL    HW262783   3.379   7.210  11.982  0.0390  0.8985  0.4631
20448SOL     OW62784   0.823   2.760   7.238 -0.1183  0.5585  0.0056
20448SOL    HW162785   0.875   2.735   7.162 -2.5181 -2.0796 -0.9759
20448SOL    HW262786   0.732   2.749   7.210 -1.1364 -1.1313  3.3324
20449SOL     OW62787   7.813   1.572   6.074  0.1117  0.1174 -0.0988
20449SOL    HW162788   7.746   1.509   6.102  0.1051 -0.3295 -1.0613
20449SOL    HW262789   7.812   1.640   6.141  1.4698 -1.8459  2.0868
20450SOL     OW62790   7.228   2.921   6.580  0.1689  0.2792 -0.5843
20450SOL    HW162791   7.231   2.827   6.564  2.6798  0.3389 -0.7653
20450SOL    HW262792   7.277   2.935   6.660  2.2713  1.6488 -2.0060
20451SOL     OW62793   1.510   2.853   0.781  0.4464 -0.0241 -0.6091
20451SOL    HW162794   1.605   2.857   0.795  0.4135 -0.8016 -0.1474
20451SOL    HW262795   1.473   2.845   0.868  0.1034 -2.3090 -0.9159
20452SOL     OW62796   1.522   2.582  12.379 -0.4876 -0.0109 -0.8508
20452SOL    HW162797   1.553   2.554  12.465  3.5812  1.9711 -1.4557
20452SOL    HW262798   1.518   2.502  12.328  1.3291 -0.7167  0.0381
20453SOL     OW62799   5.226   5.574  11.596 -0.4923 -1.0232  0.6609
20453SOL    HW162800   5.282   5.499  11.614  0.7343  0.0094  1.2546
20453SOL    HW262801   5.167   5.544  11.527  1.8557 -1.6776 -1.1856
20454SOL     OW62802   2.829   4.320   2.928  0.0334  0.3661 -0.4116
20454SOL    HW162803   2.892   4.291   2.995 -0.1930 -0.1914 -0.4296
20454SOL    HW262804   2.763   4.251   2.927 -0.0030  0.4040 -1.1585
20455SOL     OW62805   1.318   6.134   1.050 -0.8295 -0.4219  0.1160
20455SOL    HW162806   1.303   6.166   1.139 -2.8970  0.1419 -0.3644
20455SOL    HW262807   1.316   6.038   1.058  0.5545 -0.4038  0.8746
20456SOL     OW62808   1.637   4.417   6.513 -0.4043 -0.2640 -0.2110
20456SOL    HW162809   1.644   4.344   6.575  0.7518  0.4398  0.5413
20456SOL    HW262810   1.547   4.448   6.522 -0.6204 -0.9787  0.1757
20457SOL     OW62811   1.560   5.572   7.907  0.1860  0.3681 -0.3576
20457SOL    HW162812   1.623   5.619   7.853  0.1733  0.5192 -0.2407
20457SOL    HW262813   1.597   5.574   7.995 -0.6383  1.6727 -0.0095
20458SOL     OW62814   4.035   2.277   1.602  0.3654 -0.1519  0.5739
20458SOL    HW162815   3.980   2.346   1.637  1.4213  0.4637  1.0519
20458SOL    HW262816   4.118   2.320   1.580  1.5814 -1.4970  2.2536
20459SOL     OW62817   0.006   1.791   3.104 -0.3798  0.5259 -0.3120
20459SOL    HW162818   0.023   1.711   3.153 -0.8140  0.6401  0.0335
20459SOL    HW262819   0.070   1.789   3.032  0.8729  0.8121  0.7610
20460SOL     OW62820   5.526   1.833   0.608  0.0211  0.1010  0.2106
20460SOL    HW162821   5.499   1.919   0.577  1.1971  0.3388 -0.2170
20460SOL    HW262822   5.568   1.850   0.693 -2.0743 -0.3970  1.4261
20461SOL     OW62823   4.725   1.394   4.464 -0.4670  0.7628 -0.4253
20461SOL    HW162824   4.705   1.362   4.376 -1.5010 -0.1838  0.1271
20461SOL    HW262825   4.778   1.324   4.503 -0.0622  1.1530 -0.2751
20462SOL     OW62826   3.298   5.952  10.599  0.3016 -0.0355 -0.3269
20462SOL    HW162827   3.384   5.910  10.590 -0.2631 -1.3777  0.2850
20462SOL    HW262828   3.237   5.889  10.560 -0.8016 -0.7201  2.2725
20463SOL     OW62829   2.277   6.008   2.261  0.1332 -0.9228  0.4843
20463SOL    HW162830   2.306   6.007   2.169 -0.3994  1.0037  0.2600
20463SOL    HW262831   2.203   5.947   2.263  0.6958 -1.6530 -0.1612
20464SOL     OW62832   5.835   2.416   1.417  0.3066  0.0761 -0.2387
20464SOL    HW162833   5.861   2.506   1.403 -2.7903  1.1681  0.1587
20464SOL    HW262834   5.817   2.382   1.329  1.2542 -0.1157 -0.3702
20465SOL     OW62835   3.017   6.870   4.471  0.2466 -0.1378 -0.6660
20465SOL    HW162836   3.098   6.921   4.467 -0.7929  1.6885  0.5036
20465SOL    HW262837   3.035   6.793   4.417  2.7369  0.2363 -0.4787
20466SOL     OW62838   1.269   4.095   2.620  0.1111  0.3425  0.0816
20466SOL    HW162839   1.185   4.114   2.663  0.4363 -0.9453  1.3743
20466SOL    HW262840   1.245   4.043   2.544 -0.2155 -1.2873  1.2442
20467SOL     OW62841   4.595   4.274   0.544 -0.1281  0.0346  0.5749
20467SOL    HW162842   4.622   4.182   0.554  0.0272  0.0486  0.2881
20467SOL    HW262843   4.570   4.282   0.452  0.0347  0.3275  0.5548
20468SOL     OW62844   7.849   3.201  10.839 -0.0390  0.5171 -0.2712
20468SOL    HW162845   7.875   3.232  10.752 -1.8794  0.6977 -0.8056
20468SOL    HW262846   7.761   3.237  10.852 -0.0428 -0.0117  1.4227
20469SOL     OW62847   1.180   6.812   9.996 -0.8606  0.0580  0.1916
20469SOL    HW162848   1.096   6.819   9.951 -0.3718 -0.0688 -0.7589
20469SOL    HW262849   1.241   6.783   9.928  0.0289  0.5155  0.7864
20470SOL     OW62850   0.904   3.199   5.849  0.2757  0.0569  0.2103
20470SOL    HW162851   0.929   3.114   5.887 -1.5322  0.3677  2.2647
20470SOL    HW262852   0.831   3.178   5.791  2.2139 -0.2298 -2.2859
20471SOL     OW62853   7.258   7.629   3.583 -0.0408  0.3614  0.3848
20471SOL    HW162854   7.328   7.584   3.535  0.0649  2.1109 -1.2441
20471SOL    HW262855   7.299   7.710   3.614 -0.8418  0.4870  1.1530
20472SOL     OW62856   1.506   2.908   3.825 -0.2518  0.4336 -0.2220
20472SOL    HW162857   1.499   2.814   3.806 -2.4249  0.6518 -0.8144
20472SOL    HW262858   1.591   2.918   3.867  0.0963 -1.7818 -0.2861
20473SOL     OW62859   0.134   3.077   5.483  0.5206 -0.6066 -0.1089
20473SOL    HW162860   0.177   3.138   5.422 -0.6776 -1.4790 -1.9381
20473SOL    HW262861   0.131   2.994   5.435 -0.7749 -1.2524  1.0344
20474SOL     OW62862   4.801   1.730   4.316 -0.4524 -0.1765  0.2638
20474SOL    HW162863   4.770   1.792   4.383 -0.6036 -0.9221  0.9012
20474SOL    HW262864   4.895   1.723   4.332 -0.2936  0.4819 -0.3218
20475SOL     OW62865   7.885   4.177   7.507 -0.4589 -0.4561  0.1016
20475SOL    HW162866   7.930   4.125   7.441 -2.5723 -1.3771 -0.7138
20475SOL    HW262867   7.886   4.266   7.473  2.2072 -0.0616  0.9706
20476SOL     OW62868   0.709   0.655   8.282 -0.4363 -0.4376 -0.1502
20476SOL    HW162869   0.726   0.585   8.345 -0.0539  0.4802  0.7928
20476SOL    HW262870   0.615   0.653   8.269 -0.3457 -1.6839 -0.8165
20477SOL     OW62871   5.412   4.216   5.753  0.1327 -0.3805 -0.1201
20477SOL    HW162872   5.327   4.187   5.786 -0.4682  0.3306 -0.9764
20477SOL    HW262873   5.396   4.305   5.720  1.4130  0.0967  0.4841
20478SOL     OW62874   7.647   4.274   0.754  0.2828  0.3859  0.2138
20478SOL    HW162875   7.682   4.329   0.684 -1.7635 -0.6004 -1.7086
20478SOL    HW262876   7.582   4.329   0.797  0.0558  0.3094 -0.0309
20479SOL     OW62877   1.012   5.451  11.090  0.3755 -0.2960  0.2247
20479SOL    HW162878   0.933   5.494  11.123  1.0219  1.1822 -0.1093
20479SOL    HW262879   1.003   5.454  10.995  0.5770 -0.6439  0.1928
20480SOL     OW62880   4.406   0.388   9.842  0.7309 -0.4838  0.1228
20480SOL    HW162881   4.350   0.350   9.910  0.2952 -1.6741 -0.8601
20480SOL    HW262882   4.352   0.385   9.762  0.5336  2.5678  0.0189
20481SOL     OW62883   1.846   7.635   5.614  0.0962  0.3713  0.1361
20481SOL    HW162884   1.894   7.619   5.533 -0.8608  2.3833 -0.8954
20481SOL    HW262885   1.858   7.728   5.631  0.1344  0.0388  2.2529
20482SOL     OW62886   6.773   1.428   5.983  0.3393  0.1757  0.1870
20482SOL    HW162887   6.802   1.406   6.071  0.8069  2.4928  0.6771
20482SOL    HW262888   6.837   1.386   5.926  1.5289  0.7011  1.0775
20483SOL     OW62889   5.749   0.808   2.430 -0.2890 -0.7705 -0.6330
20483SOL    HW162890   5.746   0.772   2.519 -0.6129 -2.4676 -1.2971
20483SOL    HW262891   5.841   0.824   2.413 -0.2324 -0.3425  0.0259
20484SOL     OW62892   1.476   5.652   0.107  0.6901  0.4388  0.4262
20484SOL    HW162893   1.518   5.716   0.165  0.5966 -0.1018  1.1084
20484SOL    HW262894   1.513   5.568   0.134 -1.4590 -0.1952  1.6944
20485SOL     OW62895   3.281   4.449   0.066 -0.9020 -0.1042 -0.6808
20485SOL    HW162896   3.289   4.365   0.111 -2.6746 -0.3436 -0.7746
20485SOL    HW262897   3.279   4.427  -0.027 -0.5422  0.1189 -0.7446
20486SOL     OW62898   5.740   5.406   5.127  0.1342 -0.2282 -0.4493
20486SOL    HW162899   5.724   5.447   5.042  0.0477 -0.6898 -0.6571
20486SOL    HW262900   5.710   5.316   5.116  0.5139 -0.4032 -0.0564
20487SOL     OW62901   0.732   0.008   4.568 -0.2867 -0.0829 -0.1459
20487SOL    HW162902   0.792  -0.030   4.504  0.1492  0.0873  0.1595
20487SOL    HW262903   0.702   0.090   4.527  2.5765  1.7951  1.1931
20488SOL     OW62904   2.786   7.212   7.638  0.0041 -0.2035 -0.4995
20488SOL    HW162905   2.859   7.274   7.634  0.4866 -0.8266 -2.0939
20488SOL    HW262906   2.719   7.251   7.581 -0.2996 -0.3943 -0.2725
20489SOL     OW62907   2.549   1.094   1.557  0.2188  0.1721  0.2186
20489SOL    HW162908   2.554   1.170   1.499 -0.5134 -0.4576 -0.7066
20489SOL    HW262909   2.508   1.128   1.637 -0.6769  0.6448 -0.4140
20490SOL     OW62910   5.489   1.604   3.577 -0.1846 -0.3676 -0.1468
20490SOL    HW162911   5.438   1.539   3.528 -1.1147 -0.6442  1.1368
20490SOL    HW262912   5.454   1.600   3.666  0.2092  1.4045  0.1364
20491SOL     OW62913   3.049   7.918   9.855 -0.5261  0.8132  0.0511
20491SOL    HW162914   3.057   7.858   9.781 -0.1744 -0.9164  1.4295
20491SOL    HW262915   3.092   7.998   9.826 -0.1593  0.0836 -1.5106
20492SOL     OW62916   1.897   0.755   1.613 -0.2626  0.0707 -0.2031
20492SOL    HW162917   1.932   0.717   1.532 -0.3130 -1.4215  0.4413
20492SOL    HW262918   1.802   0.742   1.606 -0.2534 -0.2130  0.1550
20493SOL     OW62919   6.502   2.376  11.583 -0.1856 -0.0958 -0.0071
20493SOL    HW162920   6.509   2.471  11.595 -0.4696 -0.0309 -0.3181
20493SOL    HW262921   6.409   2.362  11.566 -0.3492 -0.5654  1.1607
20494SOL     OW62922   2.307   0.673   8.870  0.3919  0.1574 -0.2415
20494SOL    HW162923   2.275   0.615   8.801 -0.0167  1.8909 -1.5804
20494SOL    HW262924   2.240   0.667   8.938  0.8882 -1.7153  0.1501
20495SOL     OW62925   5.348   5.266  11.353  0.4907 -0.0774 -0.3126
20495SOL    HW162926   5.256   5.290  11.364  0.8074  0.1397  2.5773
20495SOL    HW262927   5.376   5.238  11.440  3.0260 -0.6715 -1.2427
20496SOL     OW62928   7.142   6.974   8.918 -0.8350  0.3387 -0.6396
20496SOL    HW162929   7.088   7.008   8.989  1.7610  1.7485  0.8004
20496SOL    HW262930   7.231   6.969   8.955 -0.0249 -2.6976 -2.5695
20497SOL     OW62931   1.637   3.310   8.133  0.3180 -0.1548 -0.7026
20497SOL    HW162932   1.673   3.325   8.045 -0.7806 -2.9793 -1.7577
20497SOL    HW262933   1.695   3.244   8.171 -1.6250 -2.2615 -1.1355
20498SOL     OW62934   5.157   5.341   8.115  0.1189  0.4454 -0.1637
20498SOL    HW162935   5.247   5.365   8.140 -0.0215  1.9977 -1.0071
20498SOL    HW262936   5.163   5.316   8.023 -0.2063 -0.1346 -0.0311
20499SOL     OW62937   1.058   6.482   8.582 -0.5425 -0.5798 -0.0927
20499SOL    HW162938   0.981   6.450   8.535 -0.3610 -0.8607 -0.1990
20499SOL    HW262939   1.117   6.407   8.587  0.3750  0.0190 -1.3387
20500SOL     OW62940   5.092   1.762  11.385 -0.5361 -0.1834 -0.3439
20500SOL    HW162941   5.156   1.694  11.361  0.6088  1.3561 -1.8945
20500SOL    HW262942   5.141   1.822  11.441 -0.4796  1.1629 -1.7651
20501SOL     OW62943   1.951   6.005   8.885 -0.0314  0.0310 -0.1349
20501SOL    HW162944   1.866   5.966   8.908 -0.1167  0.4343  0.2502
20501SOL    HW262945   1.960   6.080   8.944  0.4894  0.1302 -0.3317
20502SOL     OW62946   2.462   6.409   6.226 -0.2877  0.1083 -0.4220
20502SOL    HW162947   2.524   6.365   6.285 -1.8819 -0.0244  1.2665
20502SOL    HW262948   2.410   6.338   6.189  0.6678  0.2015 -2.0147
20503SOL     OW62949   3.572   5.965  11.850  0.0232 -0.4563 -0.6843
20503SOL    HW162950   3.586   5.873  11.870  1.4061  0.1179  1.3588
20503SOL    HW262951   3.641   5.987  11.786  1.4523 -0.2631  0.8620
20504SOL     OW62952   1.705   1.621   5.122 -0.1974  0.2655  0.0824
20504SOL    HW162953   1.719   1.672   5.043 -0.0345 -1.7178 -1.2363
20504SOL    HW262954   1.793   1.599   5.152 -0.1912  2.2380  1.7394
20505SOL     OW62955   7.508   0.027   7.704  0.5630  0.3359  0.3558
20505SOL    HW162956   7.513  -0.008   7.793  1.0724 -0.0434  0.1796
20505SOL    HW262957   7.446   0.100   7.711 -2.1370 -1.7636  0.3742
20506SOL     OW62958   0.679   6.235   1.708  0.4011 -0.3766  0.9448
20506SOL    HW162959   0.758   6.266   1.664 -0.0892 -0.6116 -0.1415
20506SOL    HW262960   0.647   6.164   1.652 -0.8157  0.0010  1.1339
20507SOL     OW62961   1.747   0.838   4.147  0.4793 -0.5812 -0.4212
20507SOL    HW162962   1.674   0.800   4.098  0.3881 -0.1464 -0.6345
20507SOL    HW262963   1.720   0.929   4.163  0.5804 -0.6742  0.3005
20508SOL     OW62964   0.876   7.195   9.254 -0.3700  0.6810  0.5217
20508SOL    HW162965   0.879   7.151   9.169  0.5186 -0.5436  1.1616
20508SOL    HW262966   0.923   7.278   9.239  0.2901  0.2236 -0.0464
20509SOL     OW62967   1.696   2.572   9.294 -0.0082  0.4426 -0.1956
20509SOL    HW162968   1.728   2.516   9.222 -0.2166 -0.2515  0.2377
20509SOL    HW262969   1.748   2.652   9.287  0.8099 -0.0861 -0.4040
20510SOL     OW62970   4.082   2.759   0.176 -0.5443 -0.1847  0.3701
20510SOL    HW162971   4.159   2.759   0.120 -0.1645 -0.9212  0.8732
20510SOL    HW262972   4.046   2.847   0.168 -0.6734 -0.3483 -1.2470
20511SOL     OW62973   5.603   6.092   3.912 -0.0310 -0.0722  0.0317
20511SOL    HW162974   5.630   6.028   3.846  0.5924  0.1251  0.0895
20511SOL    HW262975   5.525   6.054   3.952 -2.1025  0.9823 -2.6221
20512SOL     OW62976   3.750   1.092   0.005  0.5771  0.1739  0.2587
20512SOL    HW162977   3.824   1.120  -0.048  0.6047 -1.7950 -0.8402
20512SOL    HW262978   3.696   1.039  -0.055 -0.2057 -0.8393  1.7855
20513SOL     OW62979   3.712   4.377   6.500 -0.0595  0.7489  0.4794
20513SOL    HW162980   3.777   4.443   6.523 -1.0406  2.2954 -0.9585
20513SOL    HW262981   3.629   4.412   6.534 -0.6205  0.3532 -0.4421
20514SOL     OW62982   6.347   3.556   1.836 -0.2456  0.3787  0.3797
20514SOL    HW162983   6.344   3.576   1.930  1.2815  0.4048  0.4435
20514SOL    HW262984   6.351   3.460   1.832 -1.7366  0.2942  0.2660
20515SOL     OW62985   1.374   0.221   5.870  0.6138 -0.6166  0.3946
20515SOL    HW162986   1.306   0.169   5.826 -1.2296  0.4624  1.8181
20515SOL    HW262987   1.375   0.304   5.823  0.3441 -0.3324  0.8833
20516SOL     OW62988   2.694   1.053   4.612  0.1830 -0.3691  0.4266
20516SOL    HW162989   2.703   1.115   4.539 -1.0397 -0.4975  0.1312
20516SOL    HW262990   2.745   0.977   4.585 -0.6889 -0.6293 -0.5751
20517SOL     OW62991   2.502   1.784   8.641 -0.4760  0.2594 -0.4317
20517SOL    HW162992   2.516   1.869   8.600 -1.4129  0.9812  0.6585
20517SOL    HW262993   2.577   1.772   8.699 -1.4337  1.4776  1.1623
20518SOL     OW62994   3.272   0.457   9.695 -0.2861  0.3019  0.0082
20518SOL    HW162995   3.250   0.540   9.652 -0.5709  0.8449  1.1493
20518SOL    HW262996   3.348   0.424   9.647  0.5260  1.7771  0.2067
20519SOL     OW62997   2.482   5.345   4.766  0.0044  0.3890 -0.1051
20519SOL    HW162998   2.453   5.288   4.695  1.0009 -0.4551  0.1308
20519SOL    HW262999   2.416   5.335   4.834 -0.8142  0.9949 -0.7938
20520SOL     OW63000   0.331   4.342   7.279  0.1290 -0.3158 -0.3108
20520SOL    HW163001   0.354   4.328   7.371  0.6196 -0.5346 -0.4622
20520SOL    HW263002   0.412   4.325   7.232  0.1197  0.6587 -0.7108
20521SOL     OW63003   0.341   6.837   9.861  0.2183 -0.5489  0.2574
20521SOL    HW163004   0.343   6.809   9.952  0.8341 -0.2512  0.3416
20521SOL    HW263005   0.411   6.786   9.819  0.1189 -0.4829  0.0101
20522SOL     OW63006   1.219   7.099   6.305  0.4870  0.2443  0.6831
20522SOL    HW163007   1.300   7.125   6.349  1.2529  1.4924 -1.3329
20522SOL    HW263008   1.211   7.160   6.232 -2.2963  0.1385  0.8039
20523SOL     OW63009   5.961   3.311   9.710 -0.2909 -0.1607 -0.0808
20523SOL    HW163010   6.012   3.251   9.656  0.7527  1.0993 -0.5466
20523SOL    HW263011   6.015   3.326   9.788 -0.7444 -0.1564  0.2416
20524SOL     OW63012   0.872   2.700   8.852  0.2156  0.0267  0.0771
20524SOL    HW163013   0.895   2.658   8.769  0.6766  0.2652  0.0806
20524SOL    HW263014   0.862   2.792   8.829 -0.3484 -0.0155  0.1540
20525SOL     OW63015   3.776   2.816   5.111  0.0585 -0.0757  0.0171
20525SOL    HW163016   3.826   2.881   5.161 -1.2188  0.8403  0.1615
20525SOL    HW263017   3.740   2.757   5.177  1.4858 -1.1660 -0.1370
20526SOL     OW63018   3.752   1.642   4.968 -0.1596 -0.2282 -0.0089
20526SOL    HW163019   3.778   1.615   5.056 -1.1356  1.0818  0.7366
20526SOL    HW263020   3.727   1.734   4.979 -0.3277 -0.0583 -1.6623
20527SOL     OW63021   1.129   0.295   0.990  0.3111  0.1304  0.3695
20527SOL    HW163022   1.171   0.335   1.066 -2.4725  0.8664  1.6732
20527SOL    HW263023   1.095   0.211   1.022 -0.1714  0.0580 -0.2944
20528SOL     OW63024   7.220   1.019   8.975  0.3412 -0.6278 -0.3474
20528SOL    HW163025   7.278   1.004   8.901  0.3184  0.1267 -0.5224
20528SOL    HW263026   7.132   1.011   8.939  0.3296 -1.0793 -0.2265
20529SOL     OW63027   0.192   6.382  10.740 -0.4703 -0.1278 -0.3559
20529SOL    HW163028   0.240   6.361  10.820  0.7310 -0.9220 -1.2489
20529SOL    HW263029   0.238   6.458  10.704  0.2740 -0.9895 -1.2994
20530SOL     OW63030   0.071   3.576   4.598 -0.0956  0.1483  0.0884
20530SOL    HW163031   0.091   3.642   4.531 -0.7172 -1.0381 -1.3021
20530SOL    HW263032  -0.006   3.611   4.643 -0.9765 -0.0071 -1.2347
20531SOL     OW63033   4.158   4.970   4.610 -0.3845 -0.0561 -0.1564
20531SOL    HW163034   4.130   4.944   4.698 -0.8959 -1.7635 -0.7862
20531SOL    HW263035   4.104   4.917   4.551  0.8625  0.0813 -1.4736
20532SOL     OW63036   1.542   2.378  12.215 -0.2742  0.1053 -0.0722
20532SOL    HW163037   1.580   2.308  12.268 -0.1665  0.8298  0.8133
20532SOL    HW263038   1.477   2.333  12.160 -0.2527 -0.6772  0.5251
20533SOL     OW63039   6.865   0.715   7.176 -0.0228  0.3075  0.4465
20533SOL    HW163040   6.780   0.683   7.208  0.7546 -1.2060  1.1146
20533SOL    HW263041   6.920   0.719   7.254  1.3007 -1.4411 -0.3352
20534SOL     OW63042   2.605   4.262   8.469  0.2127 -0.1037 -0.7593
20534SOL    HW163043   2.646   4.346   8.492 -2.0440  1.0534 -0.7401
20534SOL    HW263044   2.675   4.198   8.483  1.4423  1.5054  1.1744
20535SOL     OW63045   2.754   1.485   7.527 -0.2063 -0.2537 -0.3803
20535SOL    HW163046   2.674   1.468   7.577  0.3977  0.9406  1.0414
20535SOL    HW263047   2.743   1.434   7.447 -1.0658 -2.5020  1.0780
20536SOL     OW63048   2.154   7.097   7.165  0.9074  0.3251 -0.3539
20536SOL    HW163049   2.231   7.087   7.109  0.0404 -1.2828 -1.3238
20536SOL    HW263050   2.127   7.008   7.184 -1.7804  0.7849 -1.5490
20537SOL     OW63051   0.011   7.487  10.847 -0.3345 -0.2088 -0.7188
20537SOL    HW163052   0.079   7.423  10.871  0.8437  0.8964 -0.9899
20537SOL    HW263053  -0.059   7.434  10.810 -0.8856 -1.7034  2.1382
20538SOL     OW63054   1.482   2.541   7.329 -0.6652  0.4229 -0.2795
20538SOL    HW163055   1.468   2.636   7.331 -0.3780  0.4632  1.8575
20538SOL    HW263056   1.397   2.504   7.353 -0.8579  0.0950 -1.3967
20539SOL     OW63057   7.483   6.737  10.233 -0.8969  0.0607 -0.0880
20539SOL    HW163058   7.422   6.714  10.163  0.1475  0.2832 -1.1031
20539SOL    HW263059   7.457   6.824  10.261 -0.6047  0.4628 -1.0308
20540SOL     OW63060   0.967   6.130   7.048  0.3713  0.1762  0.1853
20540SOL    HW163061   1.050   6.178   7.051  0.4367  0.2212 -1.3836
20540SOL    HW263062   0.992   6.040   7.026  0.0464  0.0457  0.3389
20541SOL     OW63063   2.450   3.202   1.775  0.2266 -0.6137 -0.4416
20541SOL    HW163064   2.361   3.238   1.769 -0.1554 -1.5756 -0.6701
20541SOL    HW263065   2.459   3.146   1.698  0.8263 -0.9759 -0.1182
20542SOL     OW63066   7.091   2.954   5.892 -0.4016 -0.2274  0.4890
20542SOL    HW163067   6.996   2.942   5.884 -0.4026  0.4312 -0.8100
20542SOL    HW263068   7.102   3.024   5.955 -0.7829 -0.2028  0.5284
20543SOL     OW63069   6.020   4.069   2.243 -0.3629 -0.2221  0.7186
20543SOL    HW163070   6.039   4.142   2.184 -1.3874 -0.3854  0.1803
20543SOL    HW263071   5.946   4.100   2.295 -0.6851 -0.8115  0.6122
20544SOL     OW63072   2.384   2.191   7.934  0.2337  0.1792 -0.5430
20544SOL    HW163073   2.374   2.161   8.024 -0.3397 -0.3747 -0.7833
20544SOL    HW263074   2.446   2.129   7.895  0.3521  0.3184 -0.5751
20545SOL     OW63075   1.374   1.802  11.329 -0.3702  0.3028 -0.2534
20545SOL    HW163076   1.445   1.744  11.357 -1.0448 -0.0220  0.8345
20545SOL    HW263077   1.313   1.744  11.283 -0.1404  0.5099 -0.8348
20546SOL     OW63078   3.523   7.585   1.373  0.1173 -0.3844 -0.2669
20546SOL    HW163079   3.566   7.506   1.407  0.7387  0.0178 -0.0949
20546SOL    HW263080   3.517   7.643   1.449  1.1497  0.3678 -0.7280
20547SOL     OW63081   5.484   2.437   7.369 -0.3003  0.0572 -0.4718
20547SOL    HW163082   5.512   2.503   7.432  1.0080 -1.6414  0.8145
20547SOL    HW263083   5.402   2.471   7.333 -0.0946  1.9594  0.7454
20548SOL     OW63084   2.121   2.876   2.616 -0.3054  0.4645 -0.0966
20548SOL    HW163085   2.141   2.805   2.678 -0.1737 -0.7262 -1.4483
20548SOL    HW263086   2.055   2.928   2.661 -0.5120 -0.5933  0.8934
20549SOL     OW63087   0.757   5.572   8.235 -0.0553 -0.0304 -0.4971
20549SOL    HW163088   0.714   5.537   8.312 -0.6533  1.8217  0.0714
20549SOL    HW263089   0.687   5.579   8.169 -0.2710  1.3021 -0.1565
20550SOL     OW63090   7.628   1.695  11.011  0.4849 -0.3115 -0.0793
20550SOL    HW163091   7.653   1.612  10.971  0.4373 -0.1028 -0.5415
20550SOL    HW263092   7.642   1.681  11.105 -0.0944 -1.0326 -0.0948
20551SOL     OW63093   6.953   2.879   5.397  0.3693  0.6134 -0.0281
20551SOL    HW163094   6.892   2.812   5.364  1.1569 -0.8652  1.3927
20551SOL    HW263095   6.961   2.941   5.324  1.0270 -1.7990 -2.1887
20552SOL     OW63096   3.065   3.541   3.046  0.2258  0.0702 -0.7319
20552SOL    HW163097   3.064   3.479   3.119 -1.2513  1.7077  0.7546
20552SOL    HW263098   2.990   3.598   3.063 -0.3803  0.3084 -3.7734
20553SOL     OW63099   5.246   4.412   7.131 -0.5036 -0.1506 -0.3750
20553SOL    HW163100   5.180   4.478   7.111 -0.6141 -0.6724 -1.8066
20553SOL    HW263101   5.200   4.348   7.185 -0.5181  0.6673  0.6232
20554SOL     OW63102   7.253   3.635   9.519 -0.0034  0.4209 -0.0556
20554SOL    HW163103   7.336   3.591   9.499  0.0153 -0.6059  2.0265
20554SOL    HW263104   7.237   3.692   9.443  3.0503  1.3677 -0.1041
20555SOL     OW63105   3.740   0.704   7.271  0.2050  0.5791  0.2941
20555SOL    HW163106   3.754   0.760   7.347  0.2957 -0.0517  0.7570
20555SOL    HW263107   3.688   0.631   7.305  0.4331  0.1829 -0.1984
20556SOL     OW63108   4.201   1.426   2.823 -0.8458  0.0975 -0.0420
20556SOL    HW163109   4.113   1.453   2.847 -1.3290 -0.8091 -0.7408
20556SOL    HW263110   4.245   1.410   2.906 -0.7930  2.1618  0.3727
20557SOL     OW63111   2.502   7.716  10.550  0.4235  0.4406 -0.2422
20557SOL    HW163112   2.433   7.768  10.509 -0.7015 -0.6586  0.2002
20557SOL    HW263113   2.566   7.781  10.579 -0.6688  1.5494 -0.2010
20558SOL     OW63114   6.388   7.343  11.086  0.0463 -0.0329 -0.2124
20558SOL    HW163115   6.427   7.375  11.167 -0.9173 -0.6382  0.5175
20558SOL    HW263116   6.294   7.359  11.097 -0.1114 -0.2936 -1.1220
20559SOL     OW63117   7.757   0.290   8.391 -0.0440 -0.4912  0.7936
20559SOL    HW163118   7.685   0.326   8.442 -0.6316 -0.0870 -0.2946
20559SOL    HW263119   7.725   0.204   8.363 -0.1222 -0.2930  0.2732
20560SOL     OW63120   7.064   6.959   4.651 -0.2879 -0.0604 -0.4400
20560SOL    HW163121   7.055   6.996   4.738  0.6135  1.8636 -1.0990
20560SOL    HW263122   7.071   7.035   4.593  0.2738 -1.2788 -2.0586
20561SOL     OW63123   2.947   5.344   1.365 -0.2309 -0.6960  0.3717
20561SOL    HW163124   2.858   5.329   1.335 -0.2656 -0.1164  0.1667
20561SOL    HW263125   3.000   5.282   1.315 -0.2305  0.5506 -1.2665
20562SOL     OW63126   7.421   5.135  11.384 -0.1050 -0.0998  0.0385
20562SOL    HW163127   7.419   5.040  11.395  2.1427 -0.1574  0.4378
20562SOL    HW263128   7.367   5.151  11.307 -0.0620 -1.7762 -0.3849
20563SOL     OW63129   6.602   1.844   5.430  0.0117 -0.2031  0.0421
20563SOL    HW163130   6.644   1.758   5.429  0.3811 -0.0277  0.1029
20563SOL    HW263131   6.597   1.869   5.338 -0.1313 -0.3078  0.0219
20564SOL     OW63132   2.418   7.311   8.460  0.3136 -0.3167  0.0248
20564SOL    HW163133   2.382   7.398   8.480  0.8847 -0.2488  0.7545
20564SOL    HW263134   2.345   7.251   8.478  0.2859 -0.0978  0.6797
20565SOL     OW63135   4.383   3.559   0.129 -0.2690  0.1236  0.1299
20565SOL    HW163136   4.337   3.642   0.137 -1.2474 -0.4009  0.1068
20565SOL    HW263137   4.440   3.556   0.206 -2.0740 -0.2714  1.5417
20566SOL     OW63138   4.415   6.239  10.695 -0.1490  0.0542  0.5455
20566SOL    HW163139   4.461   6.157  10.712  0.2811  0.3500  0.8153
20566SOL    HW263140   4.483   6.301  10.673 -0.4751  0.3465  0.3446
20567SOL     OW63141   1.414   5.901   0.456  0.1252 -0.1496  0.2306
20567SOL    HW163142   1.425   5.980   0.509  0.8309  0.0003 -0.1223
20567SOL    HW263143   1.369   5.840   0.514 -1.2890  0.8183  0.1964
20568SOL     OW63144   3.643   7.049   9.694 -0.0901 -0.4116 -0.0680
20568SOL    HW163145   3.664   6.973   9.640  1.9290  2.4680 -3.8463
20568SOL    HW263146   3.550   7.065   9.676 -0.4272 -1.6583  0.4446
20569SOL     OW63147   0.215   4.455   6.452 -0.6403  0.3337  0.1234
20569SOL    HW163148   0.308   4.450   6.427 -0.1653  0.6396  1.7033
20569SOL    HW263149   0.197   4.549   6.455 -1.0073  0.2737 -0.1840
20570SOL     OW63150   7.309   2.258   9.057  0.1264  0.5125 -0.1996
20570SOL    HW163151   7.269   2.332   9.103  0.5812  0.6250  0.0238
20570SOL    HW263152   7.397   2.252   9.094 -0.0346 -0.3803  0.0557
20571SOL     OW63153   7.557   3.313   9.218  0.2737 -0.1219 -0.4117
20571SOL    HW163154   7.642   3.316   9.262  0.4529 -0.1504 -0.7539
20571SOL    HW263155   7.530   3.222   9.222  0.8952 -0.3725 -1.4972
20572SOL     OW63156   5.356   1.137   4.790  0.1628 -0.1031 -0.2903
20572SOL    HW163157   5.442   1.174   4.809  0.2880  0.3298 -1.5470
20572SOL    HW263158   5.299   1.214   4.778 -0.3087 -0.3793  0.1421
20573SOL     OW63159   1.879   4.173   9.880  0.2709  0.3979  0.0829
20573SOL    HW163160   1.876   4.214   9.967 -1.7749  0.1244  0.1961
20573SOL    HW263161   1.820   4.097   9.887 -0.6564  0.8839 -1.7818
20574SOL     OW63162   6.951   3.341   7.065 -0.5774  0.0475  0.5475
20574SOL    HW163163   6.916   3.391   6.991  0.5891  1.1294  0.6912
20574SOL    HW263164   7.023   3.290   7.028  0.1055  0.7043  0.9432
20575SOL     OW63165   3.384   0.664  10.216 -0.3293 -0.4578 -0.1673
20575SOL    HW163166   3.336   0.693  10.138 -1.4311 -2.1249 -0.1489
20575SOL    HW263167   3.462   0.621  10.181 -0.1464 -0.0403 -0.2845
20576SOL     OW63168   2.697   3.523  11.738  0.4096 -0.0412  0.1470
20576SOL    HW163169   2.660   3.442  11.703  1.5451  0.0548 -1.4048
20576SOL    HW263170   2.628   3.588  11.728  0.5635 -0.1144 -1.6464
20577SOL     OW63171   5.866   0.452   2.113  0.0480  0.6922  0.3858
20577SOL    HW163172   5.843   0.483   2.201 -2.4079 -1.5124  0.6402
20577SOL    HW263173   5.853   0.529   2.057 -1.1346  1.4370  1.5994
20578SOL     OW63174   7.937   2.608   8.892 -0.5878  0.2112 -0.2531
20578SOL    HW163175   7.921   2.568   8.807  1.0765  2.8526 -1.9661
20578SOL    HW263176   8.020   2.570   8.921 -0.0197  0.9094 -0.9218
20579SOL     OW63177   6.738   6.193   4.523 -0.0151  0.0389  0.0404
20579SOL    HW163178   6.739   6.188   4.427  0.3522  0.3934  0.0219
20579SOL    HW263179   6.696   6.276   4.543  1.2753  0.7023  0.1375
20580SOL     OW63180   1.283   3.725   5.717 -0.1629 -0.0429 -0.3297
20580SOL    HW163181   1.257   3.815   5.737  2.4040  0.9823 -1.1375
20580SOL    HW263182   1.249   3.673   5.790 -2.7897  1.3242 -0.4616
20581SOL     OW63183   4.765   1.409  10.312 -0.6508 -0.0904 -0.0347
20581SOL    HW163184   4.747   1.315  10.317 -1.2782  0.0874  1.9460
20581SOL    HW263185   4.679   1.450  10.314 -0.3345  0.5607  0.9287
20582SOL     OW63186   7.803   7.775   5.636  0.0434 -0.3625 -0.2112
20582SOL    HW163187   7.840   7.700   5.682 -1.4005 -0.8503  0.1994
20582SOL    HW263188   7.834   7.766   5.546  0.1985 -1.2225 -0.0786
20583SOL     OW63189   3.134   3.448   5.659  0.2416 -0.1156 -0.4762
20583SOL    HW163190   3.178   3.528   5.689  2.6014 -1.0719 -1.1828
20583SOL    HW263191   3.117   3.398   5.739  4.0319 -1.4321 -0.3096
20584SOL     OW63192   5.160   7.585   2.191  0.5195 -0.1010 -1.1752
20584SOL    HW163193   5.232   7.592   2.129  0.1946 -0.1132 -1.5625
20584SOL    HW263194   5.084   7.619   2.144  0.1466 -0.6479 -0.9917
20585SOL     OW63195   0.986   4.196  12.180 -0.1442 -0.3429 -0.0160
20585SOL    HW163196   0.902   4.182  12.223 -0.2315 -0.2413 -0.1552
20585SOL    HW263197   1.051   4.173  12.247 -0.2863 -1.1357 -0.1426
20586SOL     OW63198   1.175   6.077   8.452  0.0947 -0.3972  0.0057
20586SOL    HW163199   1.116   6.112   8.385 -0.5527  0.4368  0.9765
20586SOL    HW263200   1.213   6.155   8.493  0.5233 -0.8954  0.5777
20587SOL     OW63201   4.756   2.905   4.366  0.5649 -0.1618  0.5784
20587SOL    HW163202   4.771   3.000   4.373  0.0574 -0.0667  0.4578
20587SOL    HW263203   4.830   2.872   4.315  2.0103 -0.1991  2.5960
20588SOL     OW63204   1.944   5.666   6.608 -0.1697  0.2498 -0.1845
20588SOL    HW163205   1.940   5.745   6.660 -0.5714  0.5327 -0.6374
20588SOL    HW263206   1.881   5.680   6.537  1.5296  0.5982 -1.7176
20589SOL     OW63207   1.238   2.642   8.819  0.2012 -0.1282  0.4448
20589SOL    HW163208   1.207   2.714   8.763  0.6175  0.9248  1.5106
20589SOL    HW263209   1.331   2.636   8.801  0.3039  0.0992  0.8657
20590SOL     OW63210   6.410   5.368  12.168  0.3683 -0.2186 -0.0443
20590SOL    HW163211   6.403   5.274  12.148  0.4058  0.0479 -1.4561
20590SOL    HW263212   6.483   5.398  12.114 -0.4599  0.8602 -0.6190
20591SOL     OW63213   0.606   2.191   6.534 -0.1370 -0.0213 -0.3099
20591SOL    HW163214   0.516   2.214   6.509 -0.7004  1.0564  2.3245
20591SOL    HW263215   0.642   2.272   6.571  1.2688 -0.9089  0.3559
20592SOL     OW63216   2.510   4.115   0.800 -0.4682 -0.4282  0.1485
20592SOL    HW163217   2.509   4.054   0.874  0.7892  0.0650  0.5886
20592SOL    HW263218   2.553   4.066   0.729 -2.2429 -1.1336 -0.5080
20593SOL     OW63219   1.182   5.792   0.915  0.0052 -0.2362 -0.1611
20593SOL    HW163220   1.143   5.745   0.842 -1.7757 -1.0221  1.2258
20593SOL    HW263221   1.152   5.883   0.905  0.4257 -0.1630 -0.8152
20594SOL     OW63222   7.926   5.224   0.985  0.2894  0.6033 -0.2066
20594SOL    HW163223   7.851   5.200   1.038  0.5489 -3.4811 -1.3506
20594SOL    HW263224   7.889   5.274   0.912 -0.7056  1.9205  1.1440
20595SOL     OW63225   2.667   2.800  12.095 -0.4721  0.3336 -0.4500
20595SOL    HW163226   2.590   2.804  12.038 -0.3801  0.7004 -0.5528
20595SOL    HW263227   2.646   2.856  12.169 -0.1650  0.7279 -0.6553
20596SOL     OW63228   1.327   7.780   0.634  0.1849 -0.1103  0.0526
20596SOL    HW163229   1.395   7.794   0.700  0.9121 -0.6014 -0.5833
20596SOL    HW263230   1.372   7.792   0.551 -0.3578 -1.0915 -0.3889
20597SOL     OW63231   4.765   2.147   6.407  0.4327  0.3137  0.7412
20597SOL    HW163232   4.783   2.069   6.355  0.3385  0.7070  0.1101
20597SOL    HW263233   4.782   2.120   6.497 -1.2228 -0.9479  0.7327
20598SOL     OW63234   6.634   7.190   7.201  0.4951  0.0696  0.6625
20598SOL    HW163235   6.595   7.238   7.275 -1.2884 -2.1293  1.2750
20598SOL    HW263236   6.576   7.211   7.127 -1.7324 -2.7236  1.4388
20599SOL     OW63237   3.348   5.471   6.980  0.1625  0.3224  0.6471
20599SOL    HW163238   3.322   5.509   7.064  2.0046 -0.2358  1.5190
20599SOL    HW263239   3.314   5.532   6.915  0.6261  1.9865  1.8920
20600SOL     OW63240   2.602   4.488   2.593  0.1648  0.0313 -0.6937
20600SOL    HW163241   2.524   4.515   2.544  0.3724 -0.6628 -1.4107
20600SOL    HW263242   2.619   4.399   2.565  1.0088  0.0442 -0.2537
20601SOL     OW63243   0.304   4.374   9.414 -0.0559  0.0165  0.2764
20601SOL    HW163244   0.387   4.416   9.434 -0.2177  1.1339 -1.2062
20601SOL    HW263245   0.270   4.345   9.498  1.7556 -0.3199  0.9143
20602SOL     OW63246   7.156   0.610  12.370 -0.4303  0.0867 -0.0846
20602SOL    HW163247   7.136   0.538  12.310 -1.0082  0.9758 -0.9908
20602SOL    HW263248   7.098   0.681  12.343 -0.0554  0.8194  0.9528
20603SOL     OW63249   5.406   1.507   1.502  0.6883 -0.2445 -0.2897
20603SOL    HW163250   5.362   1.569   1.560  2.5557 -0.1673  1.1412
20603SOL    HW263251   5.490   1.547   1.482  0.3878 -0.6061 -2.5402
20604SOL     OW63252   2.389   3.188  10.291 -0.4719 -0.2047 -0.0269
20604SOL    HW163253   2.485   3.184  10.294 -0.5416 -2.3298  1.6896
20604SOL    HW263254   2.367   3.177  10.198  0.9340  0.1513 -0.4218
20605SOL     OW63255   5.328   1.467   1.855 -0.3188  0.0815  0.5307
20605SOL    HW163256   5.325   1.500   1.945 -2.4205 -1.4137  1.0750
20605SOL    HW263257   5.245   1.495   1.816 -0.4629 -1.2586 -0.1753
20606SOL     OW63258   6.603   3.214   4.347  0.1708  0.3314  0.1814
20606SOL    HW163259   6.667   3.283   4.364  1.3414 -0.4331 -0.9734
20606SOL    HW263260   6.630   3.142   4.404  0.3307  0.0169 -0.2881
20607SOL     OW63261   6.943   7.880   0.472 -0.0356  0.2989  0.1774
20607SOL    HW163262   6.889   7.952   0.439  0.3197  0.3772 -0.2443
20607SOL    HW263263   6.894   7.801   0.449  0.0183  0.3699 -0.1944
20608SOL     OW63264   3.189   5.702   1.666 -0.5746  0.4874  0.0193
20608SOL    HW163265   3.233   5.728   1.747 -0.5953 -1.4624  0.7131
20608SOL    HW263266   3.097   5.723   1.682 -0.5541  0.2795  0.4206
20609SOL     OW63267   7.273   7.169   5.264  0.3806 -0.4249 -0.2990
20609SOL    HW163268   7.213   7.180   5.337  0.5346 -0.7169 -0.1292
20609SOL    HW263269   7.356   7.207   5.294 -0.4046  2.4892 -1.4853
20610SOL     OW63270   4.756   4.983  10.354 -0.3764 -0.2651 -0.0340
20610SOL    HW163271   4.694   4.998  10.424 -1.0269 -1.3115 -0.3659
20610SOL    HW263272   4.730   4.900  10.316  0.2090  0.0858 -1.2599
20611SOL     OW63273   2.693   6.710   1.830 -0.2706 -0.3965  0.1002
20611SOL    HW163274   2.716   6.623   1.861  1.1628  0.8756  2.8982
20611SOL    HW263275   2.629   6.743   1.893 -1.6508  0.2334 -1.5286
20612SOL     OW63276   7.189   6.344   1.752 -0.1538  0.3242 -0.3073
20612SOL    HW163277   7.265   6.313   1.802 -0.7344 -0.2247  0.2656
20612SOL    HW263278   7.164   6.269   1.698 -1.5363 -0.2532  1.0485
20613SOL     OW63279   3.483   1.638  10.869 -0.5469 -0.3997 -0.2332
20613SOL    HW163280   3.415   1.706  10.867 -0.1381  0.0090 -0.3788
20613SOL    HW263281   3.502   1.619  10.777 -0.8974 -0.9596 -0.1956
20614SOL     OW63282   5.004   6.890   2.203 -0.9235  0.4047 -0.4742
20614SOL    HW163283   5.062   6.851   2.138 -1.1948 -0.6882 -0.0805
20614SOL    HW263284   4.916   6.867   2.174 -1.2067  2.2879 -1.2144
20615SOL     OW63285   0.718   4.239   6.277  0.6218 -0.0244  0.4432
20615SOL    HW163286   0.651   4.276   6.334  0.2834 -1.6286  1.1161
20615SOL    HW263287   0.685   4.153   6.253  0.9022  0.4519 -1.9495
20616SOL     OW63288   6.769   1.750  10.482 -0.0446 -0.1122  0.4524
20616SOL    HW163289   6.829   1.687  10.444  0.2606  0.9309 -0.8998
20616SOL    HW263290   6.822   1.799  10.546  0.5815  0.7574 -0.6833
20617SOL     OW63291   3.557   7.865  10.179  0.0879 -0.1910  0.1092
20617SOL    HW163292   3.521   7.777  10.184 -0.1168 -0.1350 -0.3288
20617SOL    HW263293   3.517   7.903  10.101 -0.2554  0.4839  0.6027
20618SOL     OW63294   0.841   5.864   5.903 -0.0165  0.3233  0.0654
20618SOL    HW163295   0.804   5.776   5.911  0.2197  0.1969 -0.2469
20618SOL    HW263296   0.913   5.855   5.841 -0.0508  0.7571 -0.0411
20619SOL     OW63297   1.861   0.323   2.238 -0.2235 -0.6236 -0.1192
20619SOL    HW163298   1.951   0.337   2.206 -1.0206 -0.9194 -2.7396
20619SOL    HW263299   1.843   0.231   2.217 -0.7658 -0.9057  1.4904
20620SOL     OW63300   3.196   5.975  10.845  0.1881  0.5371 -0.1314
20620SOL    HW163301   3.237   5.985  10.759 -1.2887 -0.2412 -0.9741
20620SOL    HW263302   3.256   6.019  10.905  2.1917 -0.4513 -1.2867
20621SOL     OW63303   2.577   3.646   6.772  0.2405  0.1121 -0.8336
20621SOL    HW163304   2.592   3.729   6.818  0.7646 -0.0452 -0.7043
20621SOL    HW263305   2.570   3.581   6.842  0.0625  0.0128 -0.9428
20622SOL     OW63306   5.830   3.399   9.974  0.5836 -0.8128 -0.2358
20622SOL    HW163307   5.855   3.307   9.982 -0.2994 -1.1073 -0.7411
20622SOL    HW263308   5.763   3.400   9.906  0.4178  0.1737 -0.0714
20623SOL     OW63309   5.608   2.623   7.950 -0.1513  0.1695 -0.0370
20623SOL    HW163310   5.513   2.618   7.938 -0.0202 -0.9145 -0.7791
20623SOL    HW263311   5.634   2.698   7.897 -0.4693 -0.2217 -0.7647
20624SOL     OW63312   6.176   7.039   7.066 -0.2123 -0.3572 -0.4286
20624SOL    HW163313   6.155   6.947   7.051 -1.2468 -0.2225  0.1204
20624SOL    HW263314   6.226   7.065   6.988  0.4050 -1.4670 -0.4194
20625SOL     OW63315   4.162   3.278  11.811 -0.0256 -0.0300 -0.0388
20625SOL    HW163316   4.215   3.240  11.741  1.1730  0.2220  0.7008
20625SOL    HW263317   4.072   3.258  11.786  0.3948 -0.3496 -1.4060
20626SOL     OW63318   0.358   3.384  10.619 -0.0130  0.1996 -0.6442
20626SOL    HW163319   0.294   3.439  10.574 -4.1104 -3.2153  0.4442
20626SOL    HW263320   0.323   3.373  10.707  2.5505 -1.2262  0.3073
20627SOL     OW63321   7.136   5.622  12.306  0.2538 -0.1653 -0.1884
20627SOL    HW163322   7.150   5.672  12.387  0.2467  0.3631 -0.5069
20627SOL    HW263323   7.184   5.671  12.239 -0.4990 -0.0848 -0.6797
20628SOL     OW63324   0.142   5.632   9.524  0.1911 -0.2873 -0.3047
20628SOL    HW163325   0.218   5.625   9.465 -0.2579  0.9561 -1.0818
20628SOL    HW263326   0.098   5.712   9.495 -1.2330 -0.8176  0.3535
20629SOL     OW63327   6.289   6.787   9.171  0.2808 -0.9064 -0.0002
20629SOL    HW163328   6.297   6.871   9.216 -0.4545 -1.3024  0.9102
20629SOL    HW263329   6.313   6.722   9.238 -0.4105 -1.4824 -0.2967
20630SOL     OW63330   7.090   0.650   3.509  0.2708  0.0579 -0.3233
20630SOL    HW163331   7.119   0.564   3.539 -1.6404 -0.4475  0.2446
20630SOL    HW263332   7.159   0.710   3.536  1.8183 -1.3320 -1.0571
20631SOL     OW63333   7.020   6.084  10.738  0.6911  0.3112 -0.2924
20631SOL    HW163334   7.116   6.083  10.740  0.7013  0.4738 -0.6458
20631SOL    HW263335   6.998   6.143  10.666  0.3130  1.2622  0.5823
20632SOL     OW63336   6.667   1.570   6.701  0.1715  0.0569  0.2350
20632SOL    HW163337   6.595   1.554   6.640 -1.0530  2.0475  1.0733
20632SOL    HW263338   6.624   1.593   6.783  1.7383  2.1398  0.5263
20633SOL     OW63339   7.297   5.408   5.046 -0.2682  0.0347 -0.2275
20633SOL    HW163340   7.355   5.465   5.095  0.6140  0.0013 -1.1973
20633SOL    HW263341   7.256   5.352   5.112 -0.2664  0.9894  0.6120
20634SOL     OW63342   5.430   5.408   8.075  0.3857 -0.5914 -0.1957
20634SOL    HW163343   5.479   5.326   8.064 -1.2870 -1.5083 -1.4096
20634SOL    HW263344   5.463   5.465   8.007  0.2795 -0.9354 -0.5405
20635SOL     OW63345   5.940   1.961   0.326 -0.0153  0.6095  0.3801
20635SOL    HW163346   5.930   1.880   0.375 -2.1605  0.2636 -0.5111
20635SOL    HW263347   5.988   1.937   0.247 -1.5039 -0.0528 -0.3610
20636SOL     OW63348   4.804   3.990   2.356  0.1450 -0.1736  0.1855
20636SOL    HW163349   4.847   3.958   2.435 -1.3603  0.4548  1.3174
20636SOL    HW263350   4.740   3.922   2.334 -0.8148  0.5158  0.7180
20637SOL     OW63351   0.263   2.826   1.447 -0.1589 -0.9000  1.0735
20637SOL    HW163352   0.299   2.891   1.508  1.7681 -0.7480 -0.1527
20637SOL    HW263353   0.192   2.784   1.496 -0.2888  0.8854  2.5266
20638SOL     OW63354   2.222   7.936   6.098  0.4191 -0.1193  0.0029
20638SOL    HW163355   2.287   7.915   6.031  0.3827 -0.7031  0.1437
20638SOL    HW263356   2.271   7.938   6.180  0.8604  2.6021 -0.2398
20639SOL     OW63357   1.009   4.279   7.167 -0.4424 -0.2860  0.0126
20639SOL    HW163358   1.102   4.294   7.152 -0.8952  0.1292 -2.8671
20639SOL    HW263359   0.975   4.363   7.197  0.1389 -0.5447  1.4605
20640SOL     OW63360   2.060   0.899   1.349 -0.0919  0.3994  0.3434
20640SOL    HW163361   2.131   0.944   1.395 -1.4184  2.4845  0.5056
20640SOL    HW263362   2.074   0.806   1.368  2.1496  0.7856  0.9447
20641SOL     OW63363   0.898   2.836   2.385 -0.1457 -0.4450  0.2448
20641SOL    HW163364   0.819   2.890   2.390 -0.0313 -0.3426  0.9949
20641SOL    HW263365   0.869   2.748   2.409  0.3324 -0.0210  2.6438
20642SOL     OW63366   0.992   4.791   3.467  0.1728 -0.1949  0.0781
20642SOL    HW163367   0.973   4.710   3.419 -1.7857 -1.0204  2.0534
20642SOL    HW263368   1.024   4.761   3.553  5.1247  1.1974 -0.9349
20643SOL     OW63369   3.108   4.978   3.011 -0.0534 -0.7405 -0.5647
20643SOL    HW163370   3.172   5.016   2.951  0.1426 -2.1381 -1.3058
20643SOL    HW263371   3.159   4.917   3.064 -0.1559  0.7632  1.3412
20644SOL     OW63372   4.202   5.346   7.198  0.6143 -0.0237 -0.1364
20644SOL    HW163373   4.232   5.269   7.247  1.1022  0.8430  0.9671
20644SOL    HW263374   4.210   5.418   7.260 -2.5719  0.4987 -0.1776
20645SOL     OW63375   4.290   4.274   5.431 -0.3927  0.5710  0.0612
20645SOL    HW163376   4.362   4.305   5.377  2.3362 -5.0210 -0.1710
20645SOL    HW263377   4.315   4.300   5.520  2.7543 -2.0380  0.1324
20646SOL     OW63378   0.883   5.435   6.429  0.3884  0.3115  0.1496
20646SOL    HW163379   0.849   5.346   6.435 -0.4570  0.7167  1.7147
20646SOL    HW263380   0.847   5.480   6.505  0.3994  2.1365 -0.8812
20647SOL     OW63381   6.786   1.834   7.771 -0.2657 -0.3020 -0.5782
20647SOL    HW163382   6.835   1.915   7.784 -0.5290 -0.1553 -0.5031
20647SOL    HW263383   6.850   1.774   7.730  0.9801 -1.2046  2.4166
20648SOL     OW63384   5.953   2.794   8.739  0.4209  0.2589  0.1998
20648SOL    HW163385   5.926   2.834   8.822  2.0628  1.7893  0.0561
20648SOL    HW263386   5.895   2.834   8.673 -1.2117 -1.3153  0.5916
20649SOL     OW63387   2.019   4.932   9.024  0.4074 -0.6616 -0.0490
20649SOL    HW163388   2.057   4.978   9.099 -1.7829 -0.7785  1.2048
20649SOL    HW263389   1.954   4.873   9.061 -1.2258 -0.2639 -2.0512
20650SOL     OW63390   4.736   1.813   3.882 -0.1332 -0.7168  0.1600
20650SOL    HW163391   4.815   1.866   3.895 -0.2933  0.2114 -2.2053
20650SOL    HW263392   4.752   1.734   3.934  2.0787 -0.2612  0.2837
20651SOL     OW63393   2.661   5.404   2.693 -0.2984  0.4183 -0.4809
20651SOL    HW163394   2.596   5.415   2.763 -2.3912 -0.2939 -2.2149
20651SOL    HW263395   2.723   5.339   2.728 -0.7380  0.7727  1.0385
20652SOL     OW63396   2.194   0.750   2.490 -0.0084 -0.2272 -0.4045
20652SOL    HW163397   2.107   0.774   2.522  0.3685  2.1708 -0.9995
20652SOL    HW263398   2.255   0.792   2.551  0.7754 -1.8551 -0.0078
20653SOL     OW63399   6.830   2.703   4.155  0.2052  0.7294  0.0032
20653SOL    HW163400   6.853   2.610   4.156 -3.1859 -0.3100 -2.1868
20653SOL    HW263401   6.885   2.741   4.086 -0.1340 -0.2241 -0.8001
20654SOL     OW63402   1.408   0.980  10.668  0.1232  0.3258  0.3689
20654SOL    HW163403   1.372   0.972  10.757  1.0046 -0.2465  0.6869
20654SOL    HW263404   1.489   1.029  10.680  0.4069 -0.0323 -0.0820
20655SOL     OW63405   7.900   1.226   6.379 -0.7990  0.6759 -0.4451
20655SOL    HW163406   7.958   1.287   6.424 -2.1578  1.4233  0.3552
20655SOL    HW263407   7.955   1.184   6.313  0.8282  0.7604  0.8215
20656SOL     OW63408   5.220   5.559   7.862 -0.2810  0.2430  0.1817
20656SOL    HW163409   5.265   5.477   7.841  0.6829  1.0916 -1.2469
20656SOL    HW263410   5.143   5.559   7.805  0.1493  0.6747 -0.4157
20657SOL     OW63411   0.370   5.146   0.045  0.3633 -0.1748  0.1638
20657SOL    HW163412   0.315   5.110  -0.025  0.4641 -0.0454  0.0151
20657SOL    HW263413   0.338   5.235   0.058 -0.2686 -0.5118  0.9425
20658SOL     OW63414   3.976   6.582   9.243  0.2067 -0.4294 -0.0411
20658SOL    HW163415   3.950   6.490   9.242  0.5900 -0.5422  0.4640
20658SOL    HW263416   4.071   6.581   9.242  0.2133 -0.0245 -0.8611
20659SOL     OW63417   4.787   7.345   1.314  0.0449  0.4347 -0.0302
20659SOL    HW163418   4.824   7.262   1.283 -0.1541  0.8243 -1.3717
20659SOL    HW263419   4.696   7.325   1.333 -0.5514  0.7482 -2.2759
20660SOL     OW63420   5.648   2.726   5.699 -0.4984  0.3718  0.0935
20660SOL    HW163421   5.704   2.750   5.625 -0.2356  0.8916  0.4544
20660SOL    HW263422   5.626   2.634   5.683  1.2010 -0.1289  0.3886
20661SOL     OW63423   6.319   6.356   9.830 -0.3011 -0.1672  0.3487
20661SOL    HW163424   6.394   6.343   9.771 -1.0138 -1.3961 -0.3198
20661SOL    HW263425   6.334   6.293   9.901 -1.5370 -1.6571 -0.6588
20662SOL     OW63426   6.020   6.741   0.126  0.6703  0.0614  0.4342
20662SOL    HW163427   5.962   6.723   0.053 -0.7904  0.6900  1.3996
20662SOL    HW263428   5.996   6.828   0.156 -0.0581 -0.8580  2.7890
20663SOL     OW63429   7.242   0.962  10.476  0.0123 -0.1653 -0.0989
20663SOL    HW163430   7.245   0.880  10.525 -0.1830 -2.0338 -2.9417
20663SOL    HW263431   7.314   0.954  10.413 -0.9549  1.1296 -1.4277
20664SOL     OW63432   7.858   4.607   6.712 -0.1595 -0.0729 -0.3112
20664SOL    HW163433   7.920   4.588   6.642 -1.4174 -0.2996 -1.4188
20664SOL    HW263434   7.861   4.702   6.721  0.7809 -0.1342  0.0777
20665SOL     OW63435   0.245   7.027   9.519 -0.7457 -0.1835 -0.2248
20665SOL    HW163436   0.200   6.942   9.521  1.0123 -1.1581  0.6035
20665SOL    HW263437   0.290   7.029   9.435 -1.9321  0.5971 -0.8657
20666SOL     OW63438   0.361   6.573   6.806  0.0748 -0.2328  0.0373
20666SOL    HW163439   0.413   6.500   6.772  0.9759  0.5039 -0.2191
20666SOL    HW263440   0.378   6.573   6.900  1.3245  0.5794 -0.1660
20667SOL     OW63441   3.226   2.229   2.539 -0.1808 -0.2582 -0.0959
20667SOL    HW163442   3.143   2.259   2.501 -0.4595  1.6018  1.8107
20667SOL    HW263443   3.293   2.278   2.490 -0.3981  0.3503  0.1998
20668SOL     OW63444   2.308   5.669   9.652  0.2851  0.1258 -1.0556
20668SOL    HW163445   2.285   5.602   9.716  2.0604  0.2489 -0.2264
20668SOL    HW263446   2.364   5.730   9.700  0.1367  1.2424 -2.2545
20669SOL     OW63447   4.498   2.022   9.533 -0.3936  0.2506 -0.4868
20669SOL    HW163448   4.573   2.081   9.523 -0.3187  0.4661  0.9936
20669SOL    HW263449   4.422   2.075   9.506 -0.2475  0.8073  0.1653
20670SOL     OW63450   2.605   3.129  11.946  0.2484  0.0705  0.4477
20670SOL    HW163451   2.649   3.060  11.996  0.0606  0.9766  1.9233
20670SOL    HW263452   2.667   3.202  11.948 -0.1426  0.4135  0.0869
20671SOL     OW63453   4.367   5.400   5.254  0.3821 -0.0800  0.0720
20671SOL    HW163454   4.310   5.466   5.293  0.8944  1.5965 -1.8443
20671SOL    HW263455   4.406   5.355   5.328 -0.7676  1.0848  1.4391
20672SOL     OW63456   4.170   4.494   0.357 -0.0889  0.0928 -0.0443
20672SOL    HW163457   4.167   4.475   0.263 -1.1901 -2.1119  0.3584
20672SOL    HW263458   4.200   4.584   0.362  0.4709  0.1309 -2.4915
20673SOL     OW63459   7.898   6.516   1.674  0.0282 -0.0845  0.4612
20673SOL    HW163460   7.869   6.599   1.636  0.1160 -0.4180 -0.3448
20673SOL    HW263461   7.834   6.452   1.643 -1.0001 -0.0784  2.3840
20674SOL     OW63462   5.071   3.715  12.144 -0.7091  0.2498  0.3393
20674SOL    HW163463   4.981   3.747  12.132 -1.2319 -0.5681  1.8148
20674SOL    HW263464   5.110   3.776  12.206 -0.6456 -0.0728  0.6215
20675SOL     OW63465   7.857   4.700  10.687 -1.2259  0.2414 -0.1866
20675SOL    HW163466   7.841   4.646  10.609  0.3776  0.8608 -0.9982
20675SOL    HW263467   7.770   4.730  10.713 -2.0281 -1.6310 -0.4895
20676SOL     OW63468   5.504   3.781   5.402 -0.2384  0.1735  0.1754
20676SOL    HW163469   5.549   3.829   5.332  0.2999 -1.0540 -0.3562
20676SOL    HW263470   5.491   3.846   5.471  0.8541  0.9870 -0.3441
20677SOL     OW63471   5.729   0.979   8.519  0.0099  0.0314 -0.2330
20677SOL    HW163472   5.756   0.956   8.608  0.1471 -0.8391 -0.4885
20677SOL    HW263473   5.768   1.065   8.503  0.4910 -0.0783  0.3312
20678SOL     OW63474   4.516   0.502   9.448  0.0265  0.4515  0.0715
20678SOL    HW163475   4.514   0.479   9.355  0.2749  1.6088 -0.2328
20678SOL    HW263476   4.607   0.485   9.475  0.4948  2.0175 -0.4206
20679SOL     OW63477   6.033   1.664   1.440  0.3382  0.2254  0.0981
20679SOL    HW163478   5.953   1.611   1.450 -0.1812  1.1125  0.8225
20679SOL    HW263479   6.008   1.750   1.474  1.8324  0.3135  1.0211
20680SOL     OW63480   1.679   2.448   3.167  0.0151  0.0922  0.4565
20680SOL    HW163481   1.589   2.418   3.155  0.2469 -0.1906 -0.7558
20680SOL    HW263482   1.676   2.504   3.245 -1.0839 -0.3848  0.7735
20681SOL     OW63483   1.614   0.340  10.525  0.4506 -0.1415  0.1842
20681SOL    HW163484   1.524   0.333  10.492  0.5450  0.1809 -0.1489
20681SOL    HW263485   1.619   0.274  10.593 -0.0793 -0.0828  0.2898
20682SOL     OW63486   7.623   6.910   5.525 -0.5613 -0.0721 -0.5811
20682SOL    HW163487   7.717   6.916   5.507 -0.0369  0.4165  1.9081
20682SOL    HW263488   7.615   6.833   5.581 -1.1547  1.5079  1.6235
20683SOL     OW63489   0.749   1.484   9.123  0.3129  0.9893 -0.3614
20683SOL    HW163490   0.789   1.482   9.210  1.7522  1.0403 -0.9846
20683SOL    HW263491   0.749   1.577   9.099  0.5816  0.9069 -0.6921
20684SOL     OW63492   4.811   4.202   5.802 -0.4528 -0.1220  0.3140
20684SOL    HW163493   4.881   4.265   5.785  0.2949 -1.3968 -1.6993
20684SOL    HW263494   4.824   4.176   5.893  0.4599  1.1103  0.5606
20685SOL     OW63495   3.331   7.298  12.252 -0.0033  0.1762  0.2551
20685SOL    HW163496   3.388   7.323  12.179 -0.3638 -0.6139 -0.3073
20685SOL    HW263497   3.364   7.213  12.281  0.8245  0.9771  1.7472
20686SOL     OW63498   4.822   4.455   9.402 -0.0968 -0.3194  0.2115
20686SOL    HW163499   4.783   4.369   9.388  1.2567 -1.1494  1.2717
20686SOL    HW263500   4.842   4.487   9.314 -1.7741 -0.5057 -0.2586
20687SOL     OW63501   2.162   7.459   1.794  0.0985 -0.9012  0.2321
20687SOL    HW163502   2.132   7.371   1.771 -1.7259 -0.1524 -0.4198
20687SOL    HW263503   2.175   7.456   1.888  1.1413 -2.1534  0.0773
20688SOL     OW63504   7.904   6.528   0.252  0.4026  0.1174  0.2732
20688SOL    HW163505   7.829   6.550   0.195 -1.0403  0.9378  2.3527
20688SOL    HW263506   7.940   6.448   0.215 -1.3765 -0.1748 -0.9423
20689SOL     OW63507   4.249   1.813   8.095 -0.3172 -0.1057  0.7658
20689SOL    HW163508   4.182   1.756   8.132 -0.2140 -0.3332  0.6006
20689SOL    HW263509   4.224   1.901   8.124  0.0838 -0.3384  1.8407
20690SOL     OW63510   1.569   0.240   2.918  0.2949  0.3614  0.5772
20690SOL    HW163511   1.556   0.335   2.914  1.2227  0.4618 -1.4664
20690SOL    HW263512   1.662   0.228   2.899  0.4155 -0.9352  1.8048
20691SOL     OW63513   2.560   7.195   2.192 -0.4202  0.0229 -0.0265
20691SOL    HW163514   2.614   7.174   2.115 -2.4386 -3.2279 -0.7416
20691SOL    HW263515   2.597   7.141   2.262 -1.0970 -0.1953  0.1709
20692SOL     OW63516   1.045   7.381   6.324  0.1738  0.1499 -0.1369
20692SOL    HW163517   1.039   7.456   6.383  0.7634 -1.5148  2.2340
20692SOL    HW263518   1.135   7.381   6.293  1.3050 -1.4504  2.7571
20693SOL     OW63519   2.953   0.498  12.143  0.2853 -0.0137 -0.6543
20693SOL    HW163520   2.970   0.557  12.217  2.2870  0.2099 -1.2331
20693SOL    HW263521   3.007   0.421  12.161  0.0721 -0.3516 -1.4329
20694SOL     OW63522   0.170   2.691  12.285  0.4091  0.4333 -0.2412
20694SOL    HW163523   0.227   2.765  12.308  2.6330 -0.9630 -0.9538
20694SOL    HW263524   0.204   2.618  12.337 -1.8758 -0.1066  0.6071
20695SOL     OW63525   3.349   7.047   2.970  0.6548 -0.0312 -0.0606
20695SOL    HW163526   3.337   6.952   2.965 -0.6508  0.1586 -1.0817
20695SOL    HW263527   3.327   7.070   3.060  0.6813 -0.6535  0.1074
20696SOL     OW63528   7.299   0.387  10.877  0.1656  0.0366 -0.6908
20696SOL    HW163529   7.205   0.391  10.858 -0.2549 -1.9741  0.7168
20696SOL    HW263530   7.329   0.307  10.834  1.1951  0.4650 -0.8044
20697SOL     OW63531   2.998   3.590   9.881  0.1934 -0.2202 -0.4419
20697SOL    HW163532   3.058   3.516   9.882 -0.5331 -0.8301 -0.4570
20697SOL    HW263533   2.947   3.580   9.962 -2.7080 -2.1548 -2.2832
20698SOL     OW63534   7.585   5.876   8.479  0.5879 -0.3940  0.1814
20698SOL    HW163535   7.536   5.809   8.431 -0.5584  0.6645 -0.1681
20698SOL    HW263536   7.597   5.838   8.566 -2.1732 -0.1472  0.7770
20699SOL     OW63537   6.757   4.121  10.514 -0.7136  0.5345 -0.1558
20699SOL    HW163538   6.672   4.078  10.522 -1.7186  2.1911 -1.2047
20699SOL    HW263539   6.787   4.097  10.426 -1.0988  1.5978 -0.5942
20700SOL     OW63540   1.408   2.356   6.193 -0.1935  0.1457  0.9524
20700SOL    HW163541   1.314   2.373   6.199  0.1366  3.6921 -1.1658
20700SOL    HW263542   1.449   2.426   6.244  1.3771 -1.8402  2.5773
20701SOL     OW63543   3.294   5.376   5.603 -0.6175  0.3726 -0.1177
20701SOL    HW163544   3.336   5.354   5.686  1.0604  0.8881 -0.7913
20701SOL    HW263545   3.271   5.292   5.564 -1.0688  0.1173  0.6906
20702SOL     OW63546   2.082   4.248   2.139 -0.0888  0.6187  0.0041
20702SOL    HW163547   2.063   4.279   2.050  0.6764 -0.3096 -0.5009
20702SOL    HW263548   2.016   4.181   2.156  0.1791  0.3104 -0.1461
20703SOL     OW63549   5.667   7.471  10.436  0.4038 -0.0207 -0.3201
20703SOL    HW163550   5.599   7.525  10.394 -0.8987  0.1123  1.8152
20703SOL    HW263551   5.692   7.521  10.514  3.7006  0.3746 -1.4676
20704SOL     OW63552   4.145   5.774   7.686  0.1197 -0.1010  0.0937
20704SOL    HW163553   4.124   5.816   7.602 -0.3740  1.5623  0.9974
20704SOL    HW263554   4.080   5.704   7.695  0.3380 -0.4631 -1.0109
20705SOL     OW63555   6.133   7.631  11.814  0.3170  0.1917 -0.4803
20705SOL    HW163556   6.134   7.576  11.893  1.2445  0.6296 -0.1790
20705SOL    HW263557   6.045   7.618  11.777 -0.6669  1.0992  1.3998
20706SOL     OW63558   6.610   0.199  12.416  0.2477 -0.3786  0.5897
20706SOL    HW163559   6.625   0.137  12.488 -1.2637 -0.9109  0.4876
20706SOL    HW263560   6.534   0.251  12.444  0.2030  0.0113 -0.2254
20707SOL     OW63561   7.192   0.774   7.702 -0.5748  0.3464 -0.3338
20707SOL    HW163562   7.254   0.711   7.664  0.5320  0.9974  0.3203
20707SOL    HW263563   7.173   0.739   7.789  1.6823  1.8876  0.8786
20708SOL     OW63564   4.499   4.545   1.568  0.0330 -0.7206  0.6267
20708SOL    HW163565   4.562   4.502   1.626 -0.5619 -0.7240  1.2790
20708SOL    HW263566   4.545   4.622   1.535  0.3607 -0.6964  1.1343
20709SOL     OW63567   4.575   0.734   2.324 -0.6747  0.3461  0.5348
20709SOL    HW163568   4.596   0.667   2.388 -1.0292 -0.7605 -0.4781
20709SOL    HW263569   4.501   0.699   2.275  0.4450  0.5010 -1.3912
20710SOL     OW63570   5.561   2.441   4.527 -0.0088  0.1457  0.1959
20710SOL    HW163571   5.578   2.504   4.597  0.0484 -1.6009  1.8564
20710SOL    HW263572   5.644   2.437   4.479  0.9504 -0.6590  1.8044
20711SOL     OW63573   3.638   7.419   9.649  0.0768 -0.0687 -0.5934
20711SOL    HW163574   3.546   7.398   9.633  0.2443 -1.0842 -0.3012
20711SOL    HW263575   3.658   7.488   9.586 -1.3759  1.4921  0.5513
20712SOL     OW63576   5.486   1.596   2.246  0.4608  0.0195 -0.1845
20712SOL    HW163577   5.400   1.563   2.220 -0.5523  1.0592  1.6386
20712SOL    HW263578   5.467   1.662   2.313  2.6779  0.3713  0.1691
20713SOL     OW63579   4.544   7.240   0.364 -0.0529 -0.2279  0.0988
20713SOL    HW163580   4.558   7.162   0.416 -0.4500 -0.0890  0.4178
20713SOL    HW263581   4.450   7.257   0.370 -0.1688 -0.4334 -0.9745
20714SOL     OW63582   4.247   5.995   7.303 -0.2151  0.3075 -0.1533
20714SOL    HW163583   4.173   5.985   7.362 -0.2237  1.7166  0.1088
20714SOL    HW263584   4.251   6.089   7.284  0.3082  0.0115 -1.7136
20715SOL     OW63585   7.406   4.841   5.500  0.0459 -0.0453 -0.2227
20715SOL    HW163586   7.324   4.850   5.549 -0.4751 -1.2982 -0.8033
20715SOL    HW263587   7.461   4.913   5.531 -0.5945 -0.2613  1.5391
20716SOL     OW63588   5.012   0.777   8.193  0.0248  0.6320 -0.0212
20716SOL    HW163589   5.011   0.864   8.154  0.7174  0.9192  0.5759
20716SOL    HW263590   4.935   0.775   8.250 -1.6961 -0.2120 -2.2145
20717SOL     OW63591   4.801   1.734   3.621 -0.1247  0.1824  0.0439
20717SOL    HW163592   4.774   1.758   3.709  1.3019  3.5764 -0.2961
20717SOL    HW263593   4.765   1.803   3.565  2.8570  0.7890 -1.3249
20718SOL     OW63594   1.500   1.713   6.974 -0.0715 -0.4953 -0.1752
20718SOL    HW163595   1.498   1.718   6.878 -2.4578 -1.4190 -0.2384
20718SOL    HW263596   1.587   1.679   6.994  0.9966  1.0496 -1.8948
20719SOL     OW63597   3.913   5.595   2.731  0.4196  0.0220 -0.2187
20719SOL    HW163598   3.998   5.585   2.773  0.6819 -1.1961 -0.9825
20719SOL    HW263599   3.929   5.575   2.639 -0.8751 -1.2544 -0.2027
20720SOL     OW63600   7.257   1.164   2.139 -0.0339  0.1696  0.5073
20720SOL    HW163601   7.311   1.243   2.146 -0.2064  0.1632  3.1798
20720SOL    HW263602   7.170   1.196   2.115  0.0997  0.7215  0.7343
20721SOL     OW63603   5.276   3.469   6.871  0.2229  0.0553  0.3068
20721SOL    HW163604   5.266   3.518   6.953 -1.6369  0.5732 -0.1880
20721SOL    HW263605   5.190   3.429   6.856 -0.4227  2.1918 -2.7263
20722SOL     OW63606   1.393   5.905   8.527  0.2196 -0.3854 -0.1815
20722SOL    HW163607   1.360   5.981   8.479 -0.1023 -0.2393  0.2670
20722SOL    HW263608   1.411   5.937   8.615 -0.5960 -0.9840  0.2201
20723SOL     OW63609   3.956   2.639   0.533 -0.5349  0.0592  0.4330
20723SOL    HW163610   3.894   2.699   0.491 -0.6755 -0.2644  0.1688
20723SOL    HW263611   4.011   2.607   0.461 -0.8061 -0.5337  0.4846
20724SOL     OW63612   6.659   7.874  11.242 -0.3031  0.3634  0.4137
20724SOL    HW163613   6.622   7.786  11.235  2.1058 -0.6883  0.0704
20724SOL    HW263614   6.585   7.929  11.266 -2.4862 -1.2482 -2.0923
20725SOL     OW63615   5.251   1.845   3.498 -0.0528 -0.0228 -0.1714
20725SOL    HW163616   5.168   1.799   3.486 -0.4383  1.0167 -1.9273
20725SOL    HW263617   5.269   1.883   3.412  1.6528  0.7525  0.4959
20726SOL     OW63618   7.469   7.868   4.681  0.4171 -0.1547 -0.0630
20726SOL    HW163619   7.419   7.798   4.638 -0.9024  0.6151  0.1615
20726SOL    HW263620   7.527   7.822   4.743 -0.8281 -1.0299  0.4885
20727SOL     OW63621   0.525   4.392   3.140  0.2436  0.4651 -0.0709
20727SOL    HW163622   0.457   4.335   3.104  1.2055 -2.5618  2.5211
20727SOL    HW263623   0.531   4.464   3.077 -3.9956 -0.0592 -1.3613
20728SOL     OW63624   3.701   6.502   6.522  0.1922  0.0443  0.0311
20728SOL    HW163625   3.633   6.440   6.547 -0.8709  1.1931  0.0566
20728SOL    HW263626   3.696   6.571   6.588  0.9079  0.5023 -0.3803
20729SOL     OW63627   1.655   2.524   8.130 -0.6043 -0.2141  0.0616
20729SOL    HW163628   1.593   2.456   8.156 -0.6956  0.0021  0.4214
20729SOL    HW263629   1.612   2.570   8.058 -1.1096  0.2820  0.6631
20730SOL     OW63630   0.820   5.193   9.296 -0.5186 -0.0674  0.4728
20730SOL    HW163631   0.814   5.289   9.292 -4.4667 -0.1741 -1.7842
20730SOL    HW263632   0.837   5.167   9.205 -0.7473 -1.5399  0.8313
20731SOL     OW63633   1.179   1.437   6.431  0.5066  0.3359 -0.1735
20731SOL    HW163634   1.255   1.399   6.476  0.1468 -1.2997 -0.8685
20731SOL    HW263635   1.128   1.479   6.500  2.4158  2.2266  0.2092
20732SOL     OW63636   3.537   1.916   0.556  0.5609  0.2714  0.3311
20732SOL    HW163637   3.620   1.954   0.525  0.4285  0.6224  0.4006
20732SOL    HW263638   3.555   1.822   0.563  0.7883  0.2731 -0.1852
20733SOL     OW63639   0.538   7.170   4.577  0.5860 -0.1477 -0.6403
20733SOL    HW163640   0.521   7.109   4.648  0.9367  1.2258  0.6838
20733SOL    HW263641   0.613   7.222   4.608  1.0680  0.1659 -2.2315
20734SOL     OW63642   3.763   5.644   2.948  0.5946 -0.0902 -0.2780
20734SOL    HW163643   3.810   5.630   2.866  0.7314 -2.3488  0.1160
20734SOL    HW263644   3.688   5.698   2.924 -0.2601 -2.0285 -2.2299
20735SOL     OW63645   0.074   5.098   3.998 -0.4869  0.3327  0.0495
20735SOL    HW163646   0.155   5.117   4.045 -0.0898 -2.1715  0.5069
20735SOL    HW263647   0.013   5.071   4.066 -1.2393  0.7292 -0.4537
20736SOL     OW63648   0.855   6.950  10.168 -0.5421  0.1422 -0.2474
20736SOL    HW163649   0.875   6.856  10.175 -0.6161  0.1238 -0.2820
20736SOL    HW263650   0.763   6.957  10.192 -0.3256  0.3172  0.5554
20737SOL     OW63651   4.361   2.913   1.865 -0.2467  0.1853  0.2183
20737SOL    HW163652   4.313   2.935   1.785 -0.7909 -2.8214 -0.4105
20737SOL    HW263653   4.445   2.879   1.834 -0.7089 -1.6056  0.8086
20738SOL     OW63654   4.247   3.615   8.010  0.0743  0.2702  0.1288
20738SOL    HW163655   4.160   3.598   7.974  1.0844 -1.1798 -1.8782
20738SOL    HW263656   4.252   3.561   8.089 -0.5598 -0.3227 -0.2258
20739SOL     OW63657   0.768   6.481  12.229  0.4149 -0.1455 -0.1115
20739SOL    HW163658   0.749   6.571  12.204  0.4957  0.0493  0.5115
20739SOL    HW263659   0.831   6.451  12.164  0.8978  0.4720  0.0594
20740SOL     OW63660   3.526   6.404   5.190  0.0922  0.1916  0.5276
20740SOL    HW163661   3.579   6.334   5.151  0.5433  1.2661 -0.8904
20740SOL    HW263662   3.589   6.456   5.241 -0.0963  0.0139  0.9463
20741SOL     OW63663   3.370   3.571  10.797 -0.2008 -0.3780  0.0926
20741SOL    HW163664   3.398   3.645  10.742 -1.3651 -0.3036 -0.4272
20741SOL    HW263665   3.285   3.599  10.832  0.4568 -0.4914  1.8350
20742SOL     OW63666   7.109   7.060   1.863  0.4684 -0.2599 -0.0926
20742SOL    HW163667   7.040   7.069   1.928  0.3528 -0.9944 -0.1029
20742SOL    HW263668   7.161   6.986   1.893  2.1215  1.1351  0.6698
20743SOL     OW63669   3.134   3.129   8.530  0.2472  0.4942 -0.6873
20743SOL    HW163670   3.164   3.113   8.440 -0.9563  0.3415 -1.0687
20743SOL    HW263671   3.103   3.220   8.529  1.0345  0.7857 -0.1824
20744SOL     OW63672   2.705   4.465   3.548 -0.7327 -0.3218  0.1459
20744SOL    HW163673   2.665   4.551   3.542 -0.7755 -0.4245 -1.5375
20744SOL    HW263674   2.648   4.415   3.606  0.0066  1.1244  2.2479
20745SOL     OW63675   6.579   2.765   5.320 -0.1426  0.1961 -0.2751
20745SOL    HW163676   6.619   2.801   5.398  0.1363 -0.3485 -0.1641
20745SOL    HW263677   6.651   2.726   5.271 -0.6716 -1.8270  0.4868
20746SOL     OW63678   6.282   1.979   4.448  0.5469 -0.1000 -0.5547
20746SOL    HW163679   6.257   1.887   4.461 -0.6919  0.2877 -0.0297
20746SOL    HW263680   6.342   1.997   4.520 -0.0164 -0.2279 -0.0371
20747SOL     OW63681   3.325   1.342   3.365  0.6108 -0.1594 -0.1784
20747SOL    HW163682   3.248   1.306   3.321 -0.0075  0.5386  0.2995
20747SOL    HW263683   3.334   1.430   3.329  1.9947 -0.6709 -1.2030
20748SOL     OW63684   7.456   1.979   8.036 -0.0501 -0.1005  0.3018
20748SOL    HW163685   7.523   1.920   8.001 -0.0327  0.3779 -0.4965
20748SOL    HW263686   7.493   2.012   8.118  0.4020 -0.3624  0.2057
20749SOL     OW63687   2.083   0.351  10.073  0.9155 -0.1719 -0.2515
20749SOL    HW163688   2.140   0.412  10.120 -1.0510  0.8644  0.9386
20749SOL    HW263689   2.113   0.264  10.101  0.9647  0.3810  1.5658
20750SOL     OW63690   3.973   1.452  10.085  0.0533  0.0781 -0.0270
20750SOL    HW163691   3.987   1.501  10.166  0.0792 -0.0169  0.0265
20750SOL    HW263692   4.043   1.482  10.027 -1.4845  2.1134 -0.9603
20751SOL     OW63693   7.711   6.256   3.261 -0.3833 -0.0599  1.0035
20751SOL    HW163694   7.641   6.289   3.205 -1.4945  0.5563  2.6950
20751SOL    HW263695   7.676   6.175   3.298  0.9126 -1.2775 -0.2555
20752SOL     OW63696   4.086   0.233   4.507  0.1192 -0.0885  0.0744
20752SOL    HW163697   4.143   0.295   4.461  1.1623 -0.6545  0.5684
20752SOL    HW263698   4.117   0.235   4.598 -0.3260 -0.7763  0.2488
20753SOL     OW63699   4.113   6.735  10.883  0.0778  0.6750 -0.4931
20753SOL    HW163700   4.180   6.702  10.942 -0.8897  0.9259  0.7717
20753SOL    HW263701   4.103   6.827  10.906 -0.0769  0.8618 -1.2828
20754SOL     OW63702   4.234   2.797  10.243  0.1197  0.7521 -0.0857
20754SOL    HW163703   4.297   2.776  10.174 -0.4341 -0.5234 -0.2384
20754SOL    HW263704   4.164   2.845  10.198  1.7245  3.8127  0.3889
20755SOL     OW63705   1.487   6.809   4.366 -0.5666 -0.1840  0.6982
20755SOL    HW163706   1.420   6.878   4.367  1.1701  1.6536 -0.8943
20755SOL    HW263707   1.559   6.845   4.419  0.2480 -0.9111  0.1190
20756SOL     OW63708   1.660   5.415  10.181  0.3873  0.0968 -0.6611
20756SOL    HW163709   1.670   5.510  10.177  1.0244  0.0490 -0.4249
20756SOL    HW263710   1.617   5.392  10.099 -0.0540  0.6227 -0.5803
20757SOL     OW63711   5.580   7.731   2.839  0.7791 -0.1691 -0.6192
20757SOL    HW163712   5.618   7.720   2.752  0.5978  0.1940 -0.7471
20757SOL    HW263713   5.524   7.655   2.851 -0.4325  0.5459 -1.4731
20758SOL     OW63714   5.643   3.949   6.843 -0.3128 -0.8052  0.8515
20758SOL    HW163715   5.722   3.916   6.800 -0.0038 -1.3911  1.8434
20758SOL    HW263716   5.672   4.023   6.895 -0.9534  0.8996 -1.1106
20759SOL     OW63717   2.427   2.758   4.945 -0.1670  0.2726  0.7264
20759SOL    HW163718   2.352   2.813   4.969 -0.7198  0.5997 -1.5434
20759SOL    HW263719   2.491   2.819   4.909  0.0717 -0.3144  0.1375
20760SOL     OW63720   7.058   1.277   8.759  0.0426 -0.4817 -0.1363
20760SOL    HW163721   7.126   1.259   8.693  1.5982  2.1046  0.5983
20760SOL    HW263722   6.984   1.309   8.708  1.3722  1.8954 -0.7635
20761SOL     OW63723   3.131   2.086   7.697 -0.1725 -0.0232 -0.2662
20761SOL    HW163724   3.055   2.041   7.659 -0.6355  0.7592 -0.3031
20761SOL    HW263725   3.194   2.017   7.715 -1.2384 -0.8011  0.5635
20762SOL     OW63726   1.426   7.406   7.196  0.2912 -0.2355 -0.0246
20762SOL    HW163727   1.366   7.335   7.174  0.3288  0.1352 -1.3818
20762SOL    HW263728   1.501   7.362   7.237 -1.2270 -0.6233  2.5064
20763SOL     OW63729   1.830   7.665  12.401 -0.3636 -0.5020 -0.6561
20763SOL    HW163730   1.795   7.754  12.415 -0.1123 -0.6949  1.5318
20763SOL    HW263731   1.920   7.670  12.433 -0.2320 -1.4581 -0.8701
20764SOL     OW63732   3.517   6.300  12.013  0.7197 -0.4287  0.3142
20764SOL    HW163733   3.513   6.221  12.068 -0.6752 -0.2564  0.4900
20764SOL    HW263734   3.593   6.348  12.047  2.1440 -2.0932 -0.3882
20765SOL     OW63735   4.406   4.055   2.158  0.2277  0.3485  0.1566
20765SOL    HW163736   4.467   3.994   2.117  0.2145  1.3748 -1.4996
20765SOL    HW263737   4.335   3.999   2.191  1.0908 -0.6758  0.3356
20766SOL     OW63738   6.088   3.552   3.262 -0.6683  0.4835 -0.0555
20766SOL    HW163739   6.063   3.643   3.244 -2.7586  0.0256  0.3193
20766SOL    HW263740   6.018   3.500   3.223  0.6184 -1.0043 -0.4585
20767SOL     OW63741   2.843   3.556   8.032  0.4745 -0.0811  0.1493
20767SOL    HW163742   2.832   3.634   8.087  1.6794  0.2299 -0.0252
20767SOL    HW263743   2.929   3.566   7.992  0.6437 -1.4813  0.0865
20768SOL     OW63744   3.621   4.851  11.066 -0.3551 -0.3063  0.1844
20768SOL    HW163745   3.615   4.757  11.084 -1.8971 -0.3061 -0.1479
20768SOL    HW263746   3.629   4.856  10.971 -2.4277 -0.0834 -0.0190
20769SOL     OW63747   5.278   5.060   7.276 -0.5328  0.7264  0.5022
20769SOL    HW163748   5.278   5.112   7.357 -0.1843 -2.3799  2.6834
20769SOL    HW263749   5.370   5.041   7.261 -0.6563  0.7438 -0.3040
20770SOL     OW63750   1.685   2.989   8.265  0.8001 -0.1839 -0.3568
20770SOL    HW163751   1.634   2.977   8.346  2.2441  1.3855  0.8657
20770SOL    HW263752   1.631   2.949   8.197 -1.5987  0.4888  1.0065
20771SOL     OW63753   4.201   6.652   8.547 -0.7845 -0.7418 -0.1345
20771SOL    HW163754   4.248   6.709   8.608 -1.6095  0.0600 -0.2196
20771SOL    HW263755   4.252   6.656   8.466 -0.7479 -0.2425 -0.0901
20772SOL     OW63756   2.423   3.932   1.288  0.3980 -0.0402 -0.2886
20772SOL    HW163757   2.342   3.924   1.339  0.2958  1.7215 -0.1095
20772SOL    HW263758   2.440   3.844   1.256 -1.0841 -0.6293  0.4540
20773SOL     OW63759   7.045   4.901   0.565 -0.2469 -0.7075  0.5358
20773SOL    HW163760   7.120   4.851   0.531 -0.9307 -1.6022  0.2737
20773SOL    HW263761   6.981   4.833   0.589 -0.9997  0.0418  0.6780
20774SOL     OW63762   1.514   6.134   4.620  0.0292 -0.6358  0.1727
20774SOL    HW163763   1.525   6.224   4.649 -0.9296 -0.6933  0.7685
20774SOL    HW263764   1.572   6.083   4.676  0.7829 -0.3724 -0.3490
20775SOL     OW63765   4.057   3.734   2.680  1.3068  0.2456 -0.3453
20775SOL    HW163766   4.001   3.715   2.755 -0.7511 -1.6326 -2.2325
20775SOL    HW263767   4.056   3.830   2.674  1.9533  0.5035  2.2263
20776SOL     OW63768   0.321   5.911   4.062 -0.1588 -0.3291 -0.0903
20776SOL    HW163769   0.281   5.833   4.022  0.6062 -0.9274  0.2886
20776SOL    HW263770   0.332   5.887   4.154  1.9851 -0.5810 -0.3660
20777SOL     OW63771   3.514   3.329   4.416  0.0328 -0.1219 -0.0162
20777SOL    HW163772   3.608   3.347   4.425  0.0917  0.7382 -2.0317
20777SOL    HW263773   3.507   3.272   4.340 -0.9870 -1.5651  1.0842
20778SOL     OW63774   7.220   6.698   4.678  0.4788 -0.3430  0.4059
20778SOL    HW163775   7.204   6.606   4.700 -0.0341 -0.4293 -0.2936
20778SOL    HW263776   7.178   6.747   4.748 -1.0222 -0.6093 -0.2821
20779SOL     OW63777   7.904   5.897  12.224 -0.0698  0.8044 -0.0610
20779SOL    HW163778   7.987   5.930  12.259  0.0980 -0.0272  0.3708
20779SOL    HW263779   7.895   5.938  12.138  0.9564  0.6448 -0.2529
20780SOL     OW63780   5.666   3.164   5.729 -0.2296  0.4346 -0.2703
20780SOL    HW163781   5.638   3.082   5.770 -0.7885  0.5249 -0.4661
20780SOL    HW263782   5.759   3.151   5.710 -0.4009 -0.2947 -0.6332
20781SOL     OW63783   3.138   4.853   0.902 -0.2864  0.0595  0.1330
20781SOL    HW163784   3.178   4.936   0.926  0.8127 -0.5539  0.4631
20781SOL    HW263785   3.083   4.830   0.976  0.3611 -0.1049  0.5659
20782SOL     OW63786   4.223   6.327   0.495  0.4564 -0.1956  0.2960
20782SOL    HW163787   4.202   6.247   0.447 -0.0928 -0.1115  0.3955
20782SOL    HW263788   4.317   6.339   0.481  0.2060  0.1588 -1.2520
20783SOL     OW63789   6.029   5.200   5.956  0.1771 -0.5863 -0.0634
20783SOL    HW163790   6.108   5.201   6.010  0.2583 -0.5774 -0.1811
20783SOL    HW263791   6.049   5.261   5.884  0.0572 -0.5715 -0.0844
20784SOL     OW63792   5.613   0.771   5.358 -0.0095  0.7110 -0.1623
20784SOL    HW163793   5.596   0.686   5.398 -1.4343  1.2341  0.4227
20784SOL    HW263794   5.564   0.769   5.275  1.3319  0.3589 -0.9721
20785SOL     OW63795   4.811   7.362   4.186  0.3124  0.0068  0.4383
20785SOL    HW163796   4.906   7.370   4.179  0.1682  0.8931 -0.8684
20785SOL    HW263797   4.791   7.277   4.147  0.5727 -0.2791  0.9149
20786SOL     OW63798   2.156   6.336   3.467 -0.4731 -0.3124 -0.5127
20786SOL    HW163799   2.107   6.409   3.430  0.3199 -0.5938 -2.1904
20786SOL    HW263800   2.121   6.259   3.422  0.8314 -0.6099 -1.0477
20787SOL     OW63801   3.667   5.397   8.596 -0.6111 -0.0756  0.1063
20787SOL    HW163802   3.621   5.323   8.635 -1.3799  0.0372 -0.5440
20787SOL    HW263803   3.756   5.393   8.632 -0.4418 -1.7139 -0.4301
20788SOL     OW63804   7.240   7.886  11.711  0.5484 -0.3140 -0.3283
20788SOL    HW163805   7.323   7.929  11.695  0.4942 -0.5776 -1.3846
20788SOL    HW263806   7.263   7.794  11.724  0.4333 -0.3690 -0.5120
20789SOL     OW63807   2.976   3.130   0.123 -0.3684  0.5546 -0.4967
20789SOL    HW163808   3.057   3.160   0.164 -1.0987 -1.1961  2.5439
20789SOL    HW263809   2.925   3.210   0.107  1.2207  1.5298 -0.8514
20790SOL     OW63810   3.307   0.605   2.983  0.2703 -0.6157  0.0777
20790SOL    HW163811   3.313   0.582   3.076  0.8986 -1.1932 -0.0953
20790SOL    HW263812   3.217   0.635   2.972  0.7204  1.4011  1.2977
20791SOL     OW63813   3.160   7.654   0.242  0.6003  0.5485  0.3307
20791SOL    HW163814   3.129   7.563   0.235 -1.0429  1.0178  1.0414
20791SOL    HW263815   3.245   7.654   0.198  0.1989 -1.1237 -0.5184
20792SOL     OW63816   6.300   7.071   5.550  0.3784 -0.8658 -0.4315
20792SOL    HW163817   6.211   7.040   5.534  0.1246  0.2650 -1.2705
20792SOL    HW263818   6.343   6.997   5.594 -1.2053 -1.1230  0.7995
20793SOL     OW63819   4.884   4.925   0.582 -0.0840 -0.4449  0.0759
20793SOL    HW163820   4.890   4.863   0.655 -0.6984  0.1697  0.6783
20793SOL    HW263821   4.881   4.871   0.504  0.0598 -1.1442  0.5464
20794SOL     OW63822   5.932   6.197  10.826  0.2573 -0.0836 -0.5817
20794SOL    HW163823   5.941   6.180  10.732  1.3516 -1.2556 -0.2856
20794SOL    HW263824   5.857   6.144  10.853  0.4592 -0.3940 -0.6326
20795SOL     OW63825   0.263   6.633  10.692 -0.1382  0.5848 -0.1193
20795SOL    HW163826   0.295   6.695  10.757 -0.4026  0.4436  0.1500
20795SOL    HW263827   0.273   6.678  10.608  0.4553  0.6634 -0.0089
20796SOL     OW63828   2.220   1.254   5.849  0.0801  0.3108  0.0072
20796SOL    HW163829   2.152   1.258   5.917  0.9249  0.1511  0.8859
20796SOL    HW263830   2.176   1.281   5.769 -1.0763 -0.0246  0.5165
20797SOL     OW63831   3.961   3.240   1.788  0.0453  0.1364  0.2809
20797SOL    HW163832   3.985   3.153   1.820  1.5748  0.7151  0.8132
20797SOL    HW263833   3.984   3.299   1.860  0.8635  1.1892 -0.8102
20798SOL     OW63834   4.791   5.082   3.043 -0.2429 -0.1583  0.2257
20798SOL    HW163835   4.745   5.008   3.083 -0.4346 -0.7051 -0.9387
20798SOL    HW263836   4.875   5.046   3.016 -0.4913 -0.0836 -0.7081
20799SOL     OW63837   1.254   5.104   9.138  0.3347 -0.1185 -0.0971
20799SOL    HW163838   1.312   5.164   9.184 -1.0146  0.9374  0.2876
20799SOL    HW263839   1.311   5.057   9.077  1.4237  1.6103 -0.4794
20800SOL     OW63840   2.410   7.403   3.649  0.0404 -0.0049  0.6158
20800SOL    HW163841   2.420   7.360   3.735 -2.2139  1.0220  1.4852
20800SOL    HW263842   2.392   7.331   3.589 -1.7471 -0.5163  1.6857
20801SOL     OW63843   6.774   4.692   2.053 -0.0203  1.0792 -0.3294
20801SOL    HW163844   6.721   4.625   2.097 -0.6751  2.2713  0.7721
20801SOL    HW263845   6.787   4.658   1.965 -0.3770 -0.4667  0.1854
20802SOL     OW63846   7.437   4.068   3.756 -0.1154  0.1160 -0.2262
20802SOL    HW163847   7.433   4.058   3.851 -2.6409  0.1034 -0.2667
20802SOL    HW263848   7.523   4.033   3.731  0.6262  0.2012  2.0303
20803SOL     OW63849   5.969   0.186   0.176 -0.0620  0.4093 -0.2980
20803SOL    HW163850   5.980   0.207   0.083  0.3692 -0.1078 -0.3727
20803SOL    HW263851   6.053   0.148   0.202 -0.3925 -0.0442  0.1337
20804SOL     OW63852   2.362   0.891   7.494  0.2506  0.1393  0.1015
20804SOL    HW163853   2.409   0.811   7.518 -1.4878 -0.5393  1.4605
20804SOL    HW263854   2.402   0.960   7.548 -1.1337 -0.6886  2.3296
20805SOL     OW63855   6.864   3.905   0.547 -0.2583 -0.1161 -0.1372
20805SOL    HW163856   6.875   3.993   0.512  0.3508 -0.5575 -1.1172
20805SOL    HW263857   6.769   3.893   0.554 -0.3464  0.5778 -0.1037
20806SOL     OW63858   5.295   1.633   1.108  0.0348  0.3657  0.7661
20806SOL    HW163859   5.220   1.670   1.060  0.3313  0.7907  0.6189
20806SOL    HW263860   5.361   1.617   1.040 -0.2476 -0.8868  0.7553
20807SOL     OW63861   4.461   5.946   3.778 -0.4293 -0.1087 -0.4117
20807SOL    HW163862   4.551   5.924   3.803 -0.8328  0.1803  1.4663
20807SOL    HW263863   4.419   5.861   3.762  0.1036 -0.2523 -1.1195
20808SOL     OW63864   4.347   5.495   7.421 -0.7049  0.2165  0.1689
20808SOL    HW163865   4.399   5.463   7.495  1.4463 -0.9111 -1.6909
20808SOL    HW263866   4.384   5.581   7.402 -1.1539  0.4411  0.2973
20809SOL     OW63867   5.245   4.951  11.652 -0.2959  0.6549  0.6532
20809SOL    HW163868   5.171   5.011  11.643 -0.5746  0.4148  1.2747
20809SOL    HW263869   5.252   4.936  11.746 -0.0205 -0.0213  0.5302
20810SOL     OW63870   0.624   2.657   2.833  0.2499  0.4394  0.4020
20810SOL    HW163871   0.575   2.646   2.751 -2.5423 -1.0302  2.1419
20810SOL    HW263872   0.579   2.728   2.879  0.9476  0.3580  1.2355
20811SOL     OW63873   1.396   4.533   4.996 -0.4434 -0.1709 -0.2003
20811SOL    HW163874   1.328   4.590   5.032  1.0580  1.9048 -0.4791
20811SOL    HW263875   1.378   4.531   4.902 -0.1855  0.3344 -0.2669
20812SOL     OW63876   5.495   4.166   7.266 -0.2638 -0.6101 -0.3566
20812SOL    HW163877   5.574   4.183   7.317  0.2767 -2.7498 -0.3990
20812SOL    HW263878   5.423   4.182   7.328 -0.1731  4.3417 -1.0930
20813SOL     OW63879   4.956   6.944   8.784  0.1136 -0.1046  0.1624
20813SOL    HW163880   4.933   6.966   8.694  1.8275  0.9444 -0.0684
20813SOL    HW263881   5.019   6.872   8.776 -0.2769 -0.4993  0.5658
20814SOL     OW63882   1.473   4.967   7.181 -0.1096 -0.0679 -0.0139
20814SOL    HW163883   1.520   5.032   7.128 -0.7396  0.5254  0.1585
20814SOL    HW263884   1.425   5.018   7.246  0.8259 -0.7994  1.3064
20815SOL     OW63885   0.093   2.929   7.659  0.2774  0.0284  0.0782
20815SOL    HW163886   0.002   2.928   7.629 -0.0673  2.2332  0.8412
20815SOL    HW263887   0.092   2.879   7.741 -0.6969  1.5894  1.0739
20816SOL     OW63888   3.788   1.897   4.929 -0.0719  0.1256 -0.4626
20816SOL    HW163889   3.843   1.901   4.851  1.0272 -1.5843  0.1908
20816SOL    HW263890   3.752   1.986   4.937  1.4349  0.8967 -1.7235
20817SOL     OW63891   5.591   7.699   1.586  0.3229 -0.4372  0.4121
20817SOL    HW163892   5.526   7.675   1.519 -0.6956 -0.0934  1.2368
20817SOL    HW263893   5.647   7.763   1.543 -1.0195  0.6509  0.1898
20818SOL     OW63894   5.455   6.480   3.119 -0.0233 -0.3668 -0.2621
20818SOL    HW163895   5.414   6.395   3.100 -0.4657 -0.1164 -0.4460
20818SOL    HW263896   5.382   6.542   3.119 -0.2032 -0.4425  3.0449
20819SOL     OW63897   0.503   1.684   4.899  0.5858  0.0044 -0.1545
20819SOL    HW163898   0.494   1.770   4.942  2.3974  0.6662 -1.0050
20819SOL    HW263899   0.594   1.660   4.913  0.6603 -0.7645 -1.7687
20820SOL     OW63900   0.481   1.760   8.380  0.0874 -0.3441  0.0705
20820SOL    HW163901   0.576   1.748   8.381 -0.1080 -2.1405  0.4289
20820SOL    HW263902   0.455   1.740   8.290  0.0486  0.4105 -0.0985
20821SOL     OW63903   6.442   6.947   0.592 -0.3604  0.5236  0.8131
20821SOL    HW163904   6.363   6.905   0.626  0.3386 -0.3252  1.4298
20821SOL    HW263905   6.514   6.900   0.633  0.4719  1.4537  0.4580
20822SOL     OW63906   5.211   0.479  10.569 -0.6408  0.1187  0.4551
20822SOL    HW163907   5.230   0.561  10.525  1.7614  0.6827  2.3351
20822SOL    HW263908   5.284   0.422  10.549 -0.2217 -0.1109  2.3823
20823SOL     OW63909   3.371   4.571   1.435 -0.3177 -0.0704  0.2325
20823SOL    HW163910   3.415   4.561   1.351  0.7985 -0.3672  0.8333
20823SOL    HW263911   3.378   4.665   1.454 -3.3357  0.6477 -1.4181
20824SOL     OW63912   7.041   3.884   6.338  0.0281  0.4045 -0.0754
20824SOL    HW163913   7.062   3.847   6.252 -3.2155 -1.9633 -0.0327
20824SOL    HW263914   7.041   3.809   6.397  2.5494  2.0312  2.2125
20825SOL     OW63915   1.796   6.320   9.636 -0.1017  0.1716  0.5762
20825SOL    HW163916   1.868   6.258   9.643  1.2065  1.6361  0.6397
20825SOL    HW263917   1.759   6.323   9.725 -0.4410 -0.8062  0.4739
20826SOL     OW63918   6.198   2.070   0.194 -0.5736  0.5990  0.1660
20826SOL    HW163919   6.228   2.127   0.264  0.2118 -1.5741  1.6996
20826SOL    HW263920   6.244   2.101   0.116  1.9189  0.4088  1.4922
20827SOL     OW63921   3.512   6.506   9.789 -0.5068 -0.4990  0.3502
20827SOL    HW163922   3.548   6.595   9.780 -0.7502 -0.3472  0.8459
20827SOL    HW263923   3.454   6.496   9.714 -0.9560 -0.0009  0.6222
20828SOL     OW63924   4.707   0.005   4.815  0.9910 -0.2753 -0.0496
20828SOL    HW163925   4.738   0.094   4.797  1.9092  0.0607  2.6224
20828SOL    HW263926   4.737  -0.012   4.905 -1.2638 -2.3681  0.4092
20829SOL     OW63927   6.487   7.575   3.982  0.1523 -0.0753 -0.0820
20829SOL    HW163928   6.458   7.608   3.896 -0.7485  0.4884  0.4225
20829SOL    HW263929   6.548   7.641   4.014 -0.8683  0.6223  0.4764
20830SOL     OW63930   3.167   2.705  12.005 -0.2813  0.0143  0.5837
20830SOL    HW163931   3.230   2.675  12.070 -0.2608 -1.7054 -0.1710
20830SOL    HW263932   3.083   2.703  12.050 -0.2469 -1.0066  0.6188
20831SOL     OW63933   7.943   7.444   7.204  0.2007 -0.5816  0.0233
20831SOL    HW163934   7.906   7.476   7.121  1.5346  1.4172  0.1121
20831SOL    HW263935   8.033   7.422   7.182  1.2278  1.9987  1.2906
20832SOL     OW63936   6.128   1.244   8.773 -0.1153  0.2787  0.0852
20832SOL    HW163937   6.206   1.299   8.783 -0.6609  0.7378  2.4295
20832SOL    HW263938   6.159   1.167   8.724  2.7892 -1.1959  3.7453
20833SOL     OW63939   7.038   1.227   1.282 -0.0345 -0.2280 -0.3336
20833SOL    HW163940   7.013   1.204   1.193  2.8599  0.1077 -1.3558
20833SOL    HW263941   7.098   1.157   1.308  1.5658  1.2561  0.1134
20834SOL     OW63942   7.268   1.289   2.785 -0.4513 -0.7308  0.0031
20834SOL    HW163943   7.331   1.274   2.714 -1.0702 -0.5953 -0.5850
20834SOL    HW263944   7.244   1.382   2.777 -0.4568 -0.6897  0.4523
20835SOL     OW63945   6.428   0.905   5.630 -0.1558 -0.2959  0.3674
20835SOL    HW163946   6.343   0.881   5.593  0.7130 -1.2532 -1.1348
20835SOL    HW263947   6.466   0.823   5.658  1.8060 -0.5310 -2.4983
20836SOL     OW63948   5.833   3.548  11.347  0.4649 -0.0729 -0.0898
20836SOL    HW163949   5.741   3.550  11.322  0.7254  0.1483 -1.0989
20836SOL    HW263950   5.852   3.455  11.363  0.3479 -0.2773 -1.0503
20837SOL     OW63951   2.403   1.257   5.501 -0.0011  0.4231 -0.6142
20837SOL    HW163952   2.447   1.272   5.418 -1.3855 -2.1751 -1.9467
20837SOL    HW263953   2.337   1.191   5.481 -2.4167  1.8974  1.9450
20838SOL     OW63954   6.753   7.774   6.203  0.4690  0.4430  0.4599
20838SOL    HW163955   6.729   7.867   6.200 -0.0802  0.2760 -0.7606
20838SOL    HW263956   6.670   7.728   6.215  0.2643 -0.0614 -2.3222
20839SOL     OW63957   5.552   7.274   6.786  0.9603  0.5920  0.3281
20839SOL    HW163958   5.554   7.367   6.767  2.2009  0.1211 -2.3573
20839SOL    HW263959   5.509   7.234   6.711 -0.7075 -0.9624  1.9885
20840SOL     OW63960   3.265   4.961  11.808  0.6296  0.2939  0.2417
20840SOL    HW163961   3.217   4.918  11.737 -1.2912  0.0892  1.5738
20840SOL    HW263962   3.336   4.900  11.829 -1.2829 -1.7572  1.2492
20841SOL     OW63963   7.226   3.257   5.350  0.1419 -0.2419  0.3764
20841SOL    HW163964   7.261   3.327   5.404  1.0012  1.0121 -1.7098
20841SOL    HW263965   7.247   3.282   5.260 -1.9684 -1.8125 -0.6493
20842SOL     OW63966   5.434   0.083  11.780  0.5254  0.0844  0.0558
20842SOL    HW163967   5.411   0.175  11.766  1.2521  0.8078  2.9138
20842SOL    HW263968   5.352   0.042  11.807  0.3494  0.0554 -0.5170
20843SOL     OW63969   4.592   5.931   5.509  0.0977  0.4319  0.1585
20843SOL    HW163970   4.597   5.997   5.577  0.5506  0.7820 -0.2063
20843SOL    HW263971   4.682   5.898   5.501  0.2098  0.9394 -0.7949
20844SOL     OW63972   3.330   2.672  10.092 -0.5412  0.3063 -0.4573
20844SOL    HW163973   3.422   2.693  10.111 -0.5533 -0.8872  1.0412
20844SOL    HW263974   3.290   2.757  10.075  0.5801  0.9770  0.1113
20845SOL     OW63975   2.237   5.077  11.146 -0.3680 -0.1147 -1.1399
20845SOL    HW163976   2.225   5.171  11.157  1.7004  0.1090 -0.4070
20845SOL    HW263977   2.237   5.063  11.052  1.3487  0.9588 -1.3303
20846SOL     OW63978   4.782   2.971  11.222  0.0914 -0.2808 -0.0832
20846SOL    HW163979   4.757   3.043  11.164 -0.2160  0.4431  0.9179
20846SOL    HW263980   4.767   3.005  11.310  0.6296 -1.3269  0.4295
20847SOL     OW63981   7.371   6.836   4.184  0.0833 -0.4044  0.5096
20847SOL    HW163982   7.372   6.801   4.273 -0.0274  0.0602  0.6957
20847SOL    HW263983   7.464   6.851   4.163  0.0169  2.0147  1.5728
20848SOL     OW63984   3.499   4.463  10.656 -0.1090 -0.2136  0.1500
20848SOL    HW163985   3.583   4.429  10.625 -0.8828 -1.2893 -0.8829
20848SOL    HW263986   3.450   4.384  10.681 -1.1067  0.3173 -0.0866
20849SOL     OW63987   2.431   0.611  10.426  0.4432  0.2765 -0.3529
20849SOL    HW163988   2.423   0.691  10.373  0.3531  0.1203 -0.5765
20849SOL    HW263989   2.393   0.635  10.511  0.1924  0.3961 -0.4990
20850SOL     OW63990   5.828   2.422   8.325  0.0075 -0.1352 -0.1831
20850SOL    HW163991   5.853   2.510   8.354 -1.6483  0.2980  0.0247
20850SOL    HW263992   5.854   2.365   8.397  0.2100  0.3109  0.1019
20851SOL     OW63993   6.643   3.823  11.597  0.0119 -0.4753  0.3011
20851SOL    HW163994   6.671   3.898  11.650  0.7828 -0.4976 -0.0623
20851SOL    HW263995   6.585   3.773  11.655 -1.8835  1.2469  0.0427
20852SOL     OW63996   7.388   6.022   0.137  0.2591  0.3173 -0.2558
20852SOL    HW163997   7.362   6.105   0.098 -0.0339  0.6405  0.6121
20852SOL    HW263998   7.439   6.046   0.214 -0.8938 -0.2868  0.7330
20853SOL     OW63999   6.430   5.528   0.466 -0.1118 -0.1294  0.1439
20853SOL    HW164000   6.431   5.460   0.533 -0.2091 -0.8399 -0.5679
20853SOL    HW264001   6.466   5.605   0.510 -2.0659  0.0096  1.6300
20854SOL     OW64002   5.250   0.602   9.875  0.0676 -0.2597 -0.0532
20854SOL    HW164003   5.219   0.607   9.965  1.6711 -0.3210  0.5319
20854SOL    HW264004   5.319   0.536   9.877 -0.8395 -1.3228 -1.6391
20855SOL     OW64005   5.358   4.123   9.778  0.0269  0.2380  0.3727
20855SOL    HW164006   5.446   4.160   9.788  0.1984  0.3601 -1.2437
20855SOL    HW264007   5.364   4.069   9.699 -1.5402  0.8339 -0.1864
20856SOL     OW64008   4.698   2.647   7.119  0.9251 -0.0475  0.3946
20856SOL    HW164009   4.673   2.729   7.076  1.8158  0.4799  0.8468
20856SOL    HW264010   4.733   2.674   7.204  0.8279 -0.9378  0.7362
20857SOL     OW64011   7.225   7.884  10.229  0.1703  0.0894 -0.3341
20857SOL    HW164012   7.156   7.897  10.295  2.1099 -0.2498  1.9036
20857SOL    HW264013   7.227   7.790  10.215  2.5357 -0.4495  2.5402
20858SOL     OW64014   3.670   3.989  10.517  0.4998  0.1642 -0.1370
20858SOL    HW164015   3.721   4.004  10.596 -1.0449 -0.5239  1.0613
20858SOL    HW264016   3.678   4.070  10.467  1.4681  0.6300  0.7461
20859SOL     OW64017   3.155   5.999   2.469  0.1475  0.3555  0.7445
20859SOL    HW164018   3.099   5.922   2.481 -2.0254  1.6440 -0.5211
20859SOL    HW264019   3.217   5.972   2.401 -2.9521  0.7050 -2.5632
20860SOL     OW64020   4.317   4.407  11.390  0.2315  0.0408  0.1702
20860SOL    HW164021   4.262   4.358  11.330  1.9381 -0.7311 -0.8588
20860SOL    HW264022   4.392   4.349  11.407  0.4114  0.7403  2.0788
20861SOL     OW64023   0.244   2.410   9.271 -0.5904  0.6009 -0.0504
20861SOL    HW164024   0.167   2.369   9.231 -1.3907  1.2850  0.7427
20861SOL    HW264025   0.216   2.500   9.289  0.1865  0.6704  0.8433
20862SOL     OW64026   0.677   7.577   7.031  0.3366  0.4824 -0.3746
20862SOL    HW164027   0.604   7.522   7.002  0.1389 -0.2410  1.3455
20862SOL    HW264028   0.650   7.666   7.011 -0.5595  0.1451 -0.7133
20863SOL     OW64029   1.042   6.712   6.659 -0.4780  0.4798 -0.3361
20863SOL    HW164030   1.066   6.710   6.566  1.5156 -0.8883  0.1403
20863SOL    HW264031   1.032   6.805   6.678  0.0861  0.8542 -1.6950
20864SOL     OW64032   4.389   6.829   0.107 -0.0721  0.1643 -0.4898
20864SOL    HW164033   4.447   6.880   0.163 -0.2236 -0.8538  0.6279
20864SOL    HW264034   4.423   6.740   0.111 -1.2721 -0.3032 -0.4099
20865SOL     OW64035   4.588   5.300   3.255  0.6680 -0.4478 -0.5045
20865SOL    HW164036   4.518   5.328   3.314 -0.5127 -0.0212 -2.0401
20865SOL    HW264037   4.604   5.209   3.278  0.7770 -0.0748  0.9722
20866SOL     OW64038   4.703   0.450   8.292  0.4393 -0.1833 -0.1698
20866SOL    HW164039   4.758   0.491   8.225  1.2867 -0.5403  0.3021
20866SOL    HW264040   4.739   0.362   8.303  0.2432 -0.1619  0.6835
20867SOL     OW64041   3.166   0.491   5.817  0.0005  0.2089 -0.6649
20867SOL    HW164042   3.196   0.405   5.845 -0.7070 -0.6451 -2.4077
20867SOL    HW264043   3.220   0.512   5.741  0.0440  1.2398 -0.3662
20868SOL     OW64044   2.257   4.858   8.218  0.5666  0.0007 -0.4558
20868SOL    HW164045   2.193   4.915   8.175 -0.8493 -1.3580 -0.2653
20868SOL    HW264046   2.257   4.778   8.165 -0.3861 -1.2844  1.3727
20869SOL     OW64047   7.402   3.887   9.906  0.0245  0.2404  0.4850
20869SOL    HW164048   7.489   3.927   9.898 -0.3110  1.1044  0.9701
20869SOL    HW264049   7.343   3.949   9.864 -0.2995 -0.6148 -0.3413
20870SOL     OW64050   4.059   2.880   6.208 -0.4237  0.0855  0.1045
20870SOL    HW164051   4.054   2.842   6.296 -0.4503 -1.6260 -0.5885
20870SOL    HW264052   3.996   2.952   6.209 -1.7709 -1.0593  0.9674
20871SOL     OW64053   0.352   1.442   8.026  0.2091 -0.4190  0.2591
20871SOL    HW164054   0.317   1.451   7.937 -0.9011 -0.7939  0.6418
20871SOL    HW264055   0.440   1.409   8.014 -1.0268 -3.7307 -0.6586
20872SOL     OW64056   5.315   4.487   0.317 -0.0715  0.7471  0.7943
20872SOL    HW164057   5.310   4.562   0.258  2.2533  0.1109 -0.3377
20872SOL    HW264058   5.308   4.411   0.259  1.5303  0.1013  1.4022
20873SOL     OW64059   1.056   1.778   7.082 -0.0451 -0.6562  0.3469
20873SOL    HW164060   1.039   1.848   7.144 -1.5058 -0.5104 -0.1840
20873SOL    HW264061   0.998   1.796   7.008 -0.3516 -2.3355  0.1270
20874SOL     OW64062   4.587   0.327   0.545 -0.2031 -0.2775 -0.3235
20874SOL    HW164063   4.588   0.239   0.585 -0.4828 -0.4346 -0.6578
20874SOL    HW264064   4.654   0.323   0.477 -0.2788 -0.2604 -0.3992
20875SOL     OW64065   0.522   3.244   0.067  0.3675  0.1161  0.1625
20875SOL    HW164066   0.561   3.188   0.135 -0.1799  0.0407  0.4179
20875SOL    HW264067   0.590   3.308   0.048  0.4243  0.3178  0.9968
20876SOL     OW64068   5.827   5.236   3.917 -0.9072  0.4901 -0.2013
20876SOL    HW164069   5.861   5.324   3.903  0.7759 -0.5131 -3.3696
20876SOL    HW264070   5.757   5.226   3.853 -1.8929 -0.1191  0.9379
20877SOL     OW64071   3.209   7.157   5.453  0.2127 -0.2662  0.6515
20877SOL    HW164072   3.290   7.209   5.457  0.9421 -1.3519  0.4719
20877SOL    HW264073   3.206   7.110   5.536 -2.3241  2.6696  2.4328
20878SOL     OW64074   3.777   7.168   5.638  0.1568  0.0307 -0.0472
20878SOL    HW164075   3.867   7.170   5.605  1.2619 -0.8965  2.6187
20878SOL    HW264076   3.787   7.170   5.733 -2.7489  1.6639  0.3281
20879SOL     OW64077   0.615   1.147   3.187  0.0527  0.5941 -0.1634
20879SOL    HW164078   0.641   1.119   3.099  1.8339 -0.2463  0.5868
20879SOL    HW264079   0.690   1.198   3.219 -1.3517  2.5391  0.1765
20880SOL     OW64080   1.114   4.891   0.609  0.2338  0.5028  0.2358
20880SOL    HW164081   1.191   4.850   0.647  1.6137  2.5782 -0.1728
20880SOL    HW264082   1.125   4.880   0.514  0.2580  1.1509  0.1579
20881SOL     OW64083   7.367   5.420   0.543 -0.1296  0.8122  0.0773
20881SOL    HW164084   7.348   5.409   0.449 -0.1747  0.3233  0.1399
20881SOL    HW264085   7.304   5.486   0.572 -1.4308 -0.3999  0.1575
20882SOL     OW64086   3.627   3.527  11.404 -0.4699  0.5170 -0.0232
20882SOL    HW164087   3.660   3.501  11.318 -0.8400 -0.0734  0.0075
20882SOL    HW264088   3.705   3.532  11.459 -0.1850  1.2888 -0.4899
20883SOL     OW64089   2.838   3.953   4.517 -0.3126  0.2291 -0.3556
20883SOL    HW164090   2.926   3.989   4.526 -0.0816 -0.5128  0.4849
20883SOL    HW264091   2.847   3.861   4.540 -1.3775  0.2334  0.1573
20884SOL     OW64092   7.911   0.731   6.475  1.1313 -0.2486  0.1709
20884SOL    HW164093   7.896   0.780   6.394 -1.7528 -1.5650 -0.2292
20884SOL    HW264094   7.929   0.798   6.541 -1.2318  1.3100 -0.6406
20885SOL     OW64095   7.933   3.678   8.037 -0.2558 -0.2865 -0.0644
20885SOL    HW164096   8.028   3.680   8.043 -0.3249 -0.7012  1.3917
20885SOL    HW264097   7.910   3.585   8.039 -0.6508 -0.2588 -1.6504
20886SOL     OW64098   4.241   7.887   6.781 -0.3433 -0.3882  0.2670
20886SOL    HW164099   4.280   7.930   6.705  0.1983 -1.2585  0.0446
20886SOL    HW264100   4.223   7.959   6.842 -0.9167  0.3339 -0.7262
20887SOL     OW64101   4.849   2.241   7.175 -0.2152  0.3268 -0.2575
20887SOL    HW164102   4.842   2.306   7.106 -0.0095 -0.7778 -1.3530
20887SOL    HW264103   4.761   2.204   7.183 -0.6913  1.6764  1.3590
20888SOL     OW64104   0.009   4.767   9.352 -0.3524  0.2960  0.1019
20888SOL    HW164105   0.072   4.704   9.314 -0.5679  1.0032 -1.5162
20888SOL    HW264106   0.033   4.772   9.444  0.9006 -0.7149 -0.1369
20889SOL     OW64107   4.200   0.249   5.145  0.3477  0.3412 -0.3399
20889SOL    HW164108   4.205   0.225   5.238 -0.1141  0.4699 -0.2766
20889SOL    HW264109   4.193   0.345   5.146  0.5935  0.3626 -0.5209
20890SOL     OW64110   1.662   3.853   6.648  0.4182  0.3330  0.4094
20890SOL    HW164111   1.718   3.905   6.591  1.7724 -0.3308  1.0742
20890SOL    HW264112   1.574   3.865   6.613  1.1162  0.4149 -1.4348
20891SOL     OW64113   2.777   3.955  10.200  0.4817 -0.4724  0.0578
20891SOL    HW164114   2.686   3.985  10.194  0.4770 -0.6790 -1.1164
20891SOL    HW264115   2.771   3.865  10.233  0.1691 -0.9024 -1.1250
20892SOL     OW64116   1.270   2.741  11.625  0.7145 -0.0183 -0.3672
20892SOL    HW164117   1.193   2.745  11.569  0.6360  0.4812 -0.2288
20892SOL    HW264118   1.249   2.797  11.700  2.0818  2.0341 -1.4251
20893SOL     OW64119   6.144   5.280   0.299  0.0068 -0.1345  0.1627
20893SOL    HW164120   6.053   5.306   0.286  0.1225 -0.1546 -0.8026
20893SOL    HW264121   6.193   5.336   0.238  0.4785 -1.1543 -0.4203
20894SOL     OW64122   4.880   1.802   9.487  0.2553 -0.2292  0.2303
20894SOL    HW164123   4.911   1.892   9.474 -0.5563  0.2449  1.3355
20894SOL    HW264124   4.866   1.796   9.582 -0.8525 -1.1266  0.0292
20895SOL     OW64125   7.294   2.379   4.556  0.1022 -0.2426  0.1315
20895SOL    HW164126   7.271   2.466   4.590  2.1859  0.7200 -0.7697
20895SOL    HW264127   7.383   2.365   4.587 -0.7277 -2.8476  1.6499
20896SOL     OW64128   3.790   5.145   8.117 -0.0358 -0.0275  0.7184
20896SOL    HW164129   3.879   5.160   8.086  1.2292 -1.9681  3.0138
20896SOL    HW264130   3.777   5.050   8.109 -2.4958  0.3513 -0.8597
20897SOL     OW64131   2.574   3.838   9.484  0.6906 -0.0877 -0.0636
20897SOL    HW164132   2.547   3.928   9.462 -1.5857 -0.4474  0.8980
20897SOL    HW264133   2.653   3.849   9.536  1.0873  1.2844 -0.8933
20898SOL     OW64134   3.405   2.834  11.093  0.8311 -1.0058  0.5691
20898SOL    HW164135   3.403   2.903  11.027 -1.1657 -1.2899  0.2628
20898SOL    HW264136   3.411   2.753  11.043 -1.2676 -1.2576  0.6234
20899SOL     OW64137   1.049   7.589   1.904 -0.0104  0.8738  0.1075
20899SOL    HW164138   1.032   7.495   1.900 -0.5796  0.9915 -0.4878
20899SOL    HW264139   1.138   7.596   1.938  0.4497  0.0709 -0.8623
20900SOL     OW64140   3.615   2.066   3.473 -0.2015 -0.0419  0.0760
20900SOL    HW164141   3.634   2.159   3.490 -0.4976 -0.3288  2.1748
20900SOL    HW264142   3.520   2.059   3.484 -0.1658 -0.6101  0.0204
20901SOL     OW64143   3.947   6.224   6.813 -0.2079  0.4409  0.0364
20901SOL    HW164144   3.917   6.268   6.733 -0.2290  2.0258  0.8797
20901SOL    HW264145   4.026   6.272   6.838  1.2346 -1.5990 -0.3447
20902SOL     OW64146   5.379   7.646   2.565 -0.4933 -0.6032  0.0525
20902SOL    HW164147   5.306   7.634   2.504  0.2916 -1.2286 -0.8012
20902SOL    HW264148   5.381   7.565   2.616  0.2938 -1.0891 -0.7163
20903SOL     OW64149   4.200   1.448   0.126 -0.2758 -0.8320 -0.3187
20903SOL    HW164150   4.220   1.539   0.106  0.7245 -0.6989  1.1074
20903SOL    HW264151   4.150   1.451   0.207  1.1063 -1.5891  0.6113
20904SOL     OW64152   3.572   6.077   3.505 -0.3711 -0.6535 -0.0717
20904SOL    HW164153   3.656   6.105   3.542 -1.6407  0.9321  1.7791
20904SOL    HW264154   3.542   6.153   3.454 -2.5422  0.4831  2.6877
20905SOL     OW64155   4.232   2.998  11.669 -0.5176  0.2723  0.3118
20905SOL    HW164156   4.320   3.024  11.642  0.0089 -1.0876  0.6487
20905SOL    HW264157   4.222   2.909  11.635 -1.4014  0.0669  1.0816
20906SOL     OW64158   6.095   2.185   2.835 -0.1064 -0.3495  0.1746
20906SOL    HW164159   6.148   2.210   2.759 -1.7998 -1.8568 -1.6243
20906SOL    HW264160   6.148   2.119   2.879  0.5027 -0.1476 -0.2283
20907SOL     OW64161   0.022   1.186  11.855 -0.4710 -0.2061  0.9953
20907SOL    HW164162  -0.000   1.251  11.922 -2.8398  1.8931 -1.5662
20907SOL    HW264163   0.097   1.224  11.809 -1.3899  0.4665 -0.0242
20908SOL     OW64164   5.471   7.561   3.985  0.1170 -0.1083  0.3471
20908SOL    HW164165   5.429   7.500   4.047 -0.0503  0.1540  0.4965
20908SOL    HW264166   5.545   7.512   3.950 -0.1588 -0.4865  0.2820
20909SOL     OW64167   2.968   6.180   5.299 -0.2362 -0.0684 -0.5058
20909SOL    HW164168   2.914   6.129   5.238 -1.3170 -0.4260  0.7071
20909SOL    HW264169   2.968   6.129   5.380  1.2058  0.3773 -0.1937
20910SOL     OW64170   1.580   7.434   2.528 -0.2032 -0.5444  0.0021
20910SOL    HW164171   1.670   7.415   2.553 -0.2248  0.1369  0.6453
20910SOL    HW264172   1.551   7.500   2.591 -1.2439 -0.9548 -0.0192
20911SOL     OW64173   7.943   2.870   3.819  0.2575 -0.4349 -0.2160
20911SOL    HW164174   8.033   2.839   3.818  0.3354 -0.2968  0.9711
20911SOL    HW264175   7.945   2.954   3.773  0.6080 -0.7384 -0.7575
20912SOL     OW64176   5.475   4.154   9.192 -0.3111 -1.0702 -0.6959
20912SOL    HW164177   5.518   4.175   9.108 -0.3566 -1.3162 -0.7827
20912SOL    HW264178   5.504   4.223   9.251  1.6318 -2.1620 -0.2712
20913SOL     OW64179   4.201   5.092   3.251  0.6152 -0.2178  0.6790
20913SOL    HW164180   4.154   5.109   3.332  0.7220  0.3398  0.6288
20913SOL    HW264181   4.212   5.179   3.211  0.6784 -0.4708  0.1380
20914SOL     OW64182   7.376   4.141  10.395  0.1623 -0.6003 -0.8830
20914SOL    HW164183   7.411   4.083  10.327 -0.7906 -0.3950 -1.5756
20914SOL    HW264184   7.385   4.229  10.358  0.7575 -0.3731 -0.2222
20915SOL     OW64185   2.921   5.727   1.682  0.0733 -0.6622 -0.1339
20915SOL    HW164186   2.841   5.774   1.658  0.6964  0.1250 -0.7265
20915SOL    HW264187   2.894   5.635   1.685 -1.1115 -0.3167  0.8303
20916SOL     OW64188   5.861   2.380   1.014  0.1094 -0.2641 -0.2112
20916SOL    HW164189   5.781   2.412   1.056  0.2882 -0.3250  0.1738
20916SOL    HW264190   5.871   2.290   1.045  1.2931  0.3142  1.1610
20917SOL     OW64191   3.881   6.003  10.061 -0.2898  0.0336 -0.1056
20917SOL    HW164192   3.970   6.027  10.034  0.0012 -2.2414 -1.4441
20917SOL    HW264193   3.855   6.072  10.122  2.9243  0.0083  1.4757
20918SOL     OW64194   0.214   1.174   2.815  0.3836  0.2670  0.2357
20918SOL    HW164195   0.186   1.205   2.902 -0.0331 -0.7485  0.4820
20918SOL    HW264196   0.308   1.188   2.814  0.2735  1.0651  0.5294
20919SOL     OW64197   5.131   5.029   1.773  0.2275  0.4470  0.2338
20919SOL    HW164198   5.152   5.008   1.864  0.0257  1.2914  0.4770
20919SOL    HW264199   5.189   5.102   1.751  0.9257 -0.3337 -0.6106
20920SOL     OW64200   3.754   0.928   5.687  0.2195  0.1050 -0.1500
20920SOL    HW164201   3.687   0.888   5.632 -1.3092  0.6975  1.2207
20920SOL    HW264202   3.710   1.000   5.732  0.9734 -1.1091  2.8295
20921SOL     OW64203   0.523   1.752   6.946  0.2084 -0.1980 -0.2196
20921SOL    HW164204   0.493   1.841   6.929 -0.4362 -0.4430 -0.3696
20921SOL    HW264205   0.486   1.730   7.031 -0.5688 -0.7302 -0.6867
20922SOL     OW64206   5.975   1.273   2.864 -0.4361 -0.0062 -0.1924
20922SOL    HW164207   5.928   1.331   2.804 -0.0801  0.6537  0.1555
20922SOL    HW264208   6.068   1.294   2.850 -0.3246 -0.2233  0.2070
20923SOL     OW64209   5.517   3.978   5.594 -0.5109  0.1139  0.4721
20923SOL    HW164210   5.457   4.022   5.654  0.6048  2.2888  0.1231
20923SOL    HW264211   5.544   4.047   5.533  1.5779 -0.9967  0.0359
20924SOL     OW64212   2.588   5.311   5.359  0.3212  0.1450 -0.1596
20924SOL    HW164213   2.548   5.226   5.378  1.6524 -0.4716 -0.0108
20924SOL    HW264214   2.517   5.363   5.323  0.0857 -1.9583 -3.0601
20925SOL     OW64215   3.669   5.383  10.057  0.2120  0.2224 -0.0223
20925SOL    HW164216   3.655   5.476  10.038 -1.5210  0.0736  0.3551
20925SOL    HW264217   3.709   5.348   9.978 -1.0626  0.8920 -1.0085
20926SOL     OW64218   2.039   0.514   5.434 -0.2210  0.2029  0.0237
20926SOL    HW164219   2.097   0.513   5.510 -0.3014  0.9167  0.1016
20926SOL    HW264220   2.075   0.584   5.378 -1.4999  1.2742  0.4852
20927SOL     OW64221   0.360   7.175   9.306 -0.1476  0.0427 -0.3397
20927SOL    HW164222   0.281   7.196   9.256  0.7357  0.3600 -1.6574
20927SOL    HW264223   0.432   7.205   9.251  0.8624  1.5633  1.6974
20928SOL     OW64224   2.111   7.398  10.290 -0.1768  0.1808  0.1811
20928SOL    HW164225   2.114   7.334  10.219 -0.7470  1.7036 -1.2860
20928SOL    HW264226   2.203   7.415  10.311  0.0864  1.0127 -1.4688
20929SOL     OW64227   7.017   0.877   9.302  0.0781  0.0289  0.2772
20929SOL    HW164228   7.058   0.888   9.388 -2.4147 -1.1699  1.7163
20929SOL    HW264229   7.089   0.847   9.245  1.6413  0.1079  2.1091
20930SOL     OW64230   1.584   7.720   6.191 -0.1430 -0.3141  0.8775
20930SOL    HW164231   1.530   7.754   6.120  1.8629  1.6255  0.1969
20930SOL    HW264232   1.587   7.791   6.255  3.2987  0.5623 -0.0904
20931SOL     OW64233   0.990   4.601   5.135 -0.2050  0.2186  0.0682
20931SOL    HW164234   0.942   4.592   5.217 -0.1646 -2.1035 -0.1021
20931SOL    HW264235   1.075   4.560   5.152  0.0806  0.3587 -0.9330
20932SOL     OW64236   5.479   5.291   8.406 -0.4287 -0.3175 -0.1134
20932SOL    HW164237   5.413   5.355   8.431  1.2998  0.9486  1.5229
20932SOL    HW264238   5.562   5.340   8.408  0.8131 -2.2919 -0.0487
20933SOL     OW64239   2.097   7.067   9.595 -0.0157 -0.1371  0.2205
20933SOL    HW164240   2.040   7.144   9.589 -1.0174 -0.7471  1.5498
20933SOL    HW264241   2.038   6.992   9.581  0.7308 -0.7161  0.1160
20934SOL     OW64242   5.560   7.111   5.449 -0.3677 -0.2569 -0.2985
20934SOL    HW164243   5.605   7.076   5.526 -1.2240  1.9597  1.3264
20934SOL    HW264244   5.471   7.076   5.456 -0.7667  0.8240  0.4272
20935SOL     OW64245   0.712   2.992   7.633  0.0069 -0.4797  0.1550
20935SOL    HW164246   0.807   2.990   7.642  0.1540 -0.4426 -1.1886
20935SOL    HW264247   0.683   2.910   7.671  0.7636 -1.3522 -1.0699
20936SOL     OW64248   4.395   0.882  10.120  0.0561 -0.2637 -0.1137
20936SOL    HW164249   4.444   0.940  10.062 -0.0470 -1.9637 -2.0316
20936SOL    HW264250   4.304   0.891  10.091 -0.5672  1.3662  2.0956
20937SOL     OW64251   1.634   7.029   9.562  0.6323  0.8170  0.4927
20937SOL    HW164252   1.540   7.039   9.555  0.4943 -1.2189 -1.7279
20937SOL    HW264253   1.652   7.035   9.656 -2.1556 -1.8899  1.3835
20938SOL     OW64254   6.310   4.701   2.719 -0.1004 -0.0703 -0.0341
20938SOL    HW164255   6.319   4.655   2.803  0.0602 -0.6744 -0.3756
20938SOL    HW264256   6.387   4.758   2.714 -1.2092  1.6097  1.2152
20939SOL     OW64257   2.053   7.057   5.337 -0.2080  0.2153 -0.5272
20939SOL    HW164258   2.094   7.017   5.413 -3.0001 -0.1439  0.9370
20939SOL    HW264259   2.101   7.138   5.323  1.3427 -0.4652  0.6181
20940SOL     OW64260   2.400   3.864   6.312 -0.4751 -0.6941 -0.1927
20940SOL    HW164261   2.455   3.788   6.292 -0.8768 -0.9438 -0.3616
20940SOL    HW264262   2.325   3.855   6.253 -0.8769 -0.5567  0.2942
20941SOL     OW64263   5.003   6.490   5.342  0.3183 -0.1296 -0.6069
20941SOL    HW164264   5.046   6.542   5.410  0.7893 -0.8810 -0.3243
20941SOL    HW264265   4.909   6.501   5.360  0.4353 -1.2686  0.9187
20942SOL     OW64266   3.681   0.317   5.898  1.0031 -0.1141  0.1636
20942SOL    HW164267   3.612   0.263   5.936  1.6444 -0.6589  0.5676
20942SOL    HW264268   3.710   0.267   5.821  1.0071  0.0671  0.0485
20943SOL     OW64269   0.676   2.545   5.787 -0.0865 -0.0458 -0.0963
20943SOL    HW164270   0.708   2.565   5.699  0.4174 -0.3272  0.0188
20943SOL    HW264271   0.703   2.454   5.802 -2.2742 -0.8459 -0.5960
20944SOL     OW64272   5.237   6.708   5.324  0.5143  0.0466  0.3133
20944SOL    HW164273   5.253   6.732   5.232 -1.6854  0.4000 -0.0173
20944SOL    HW264274   5.219   6.791   5.368 -0.0401 -0.2733  0.7053
20945SOL     OW64275   6.955   4.515  10.209 -0.4223 -0.0310  0.1879
20945SOL    HW164276   7.046   4.541  10.197  0.1704 -1.8423  0.4677
20945SOL    HW264277   6.918   4.515  10.120  0.7603 -2.2652 -0.3876
20946SOL     OW64278   5.200   4.266   0.187  0.0526 -0.3258 -0.2633
20946SOL    HW164279   5.190   4.277   0.092  0.1543  0.3108 -0.2042
20946SOL    HW264280   5.111   4.252   0.220 -0.3896  2.3518 -0.1022
20947SOL     OW64281   3.251   6.355  10.652 -0.0272 -0.8128  0.7665
20947SOL    HW164282   3.276   6.309  10.572 -0.0664 -0.6192  0.6439
20947SOL    HW264283   3.241   6.447  10.625  1.1165 -0.5351  1.2318
20948SOL     OW64284   7.754   1.731   8.622 -0.1584  0.9846 -0.2370
20948SOL    HW164285   7.796   1.817   8.616  1.4747  0.6675  3.6490
20948SOL    HW264286   7.827   1.669   8.627 -1.3065 -0.7690 -2.9320
20949SOL     OW64287   7.061   6.119  11.607 -0.1936  0.2479 -0.0009
20949SOL    HW164288   7.010   6.137  11.686  0.1252  0.4361  0.1657
20949SOL    HW264289   7.017   6.045  11.566 -0.2095 -0.0201  0.4909
20950SOL     OW64290   7.409   7.041   1.390 -0.3181 -0.4748  0.1388
20950SOL    HW164291   7.436   7.054   1.481 -1.9411 -3.0494  1.0695
20950SOL    HW264292   7.331   6.986   1.395  0.5899 -2.2503 -2.8883
20951SOL     OW64293   7.731   0.857  10.362 -0.1654  0.5044 -0.1008
20951SOL    HW164294   7.824   0.851  10.384 -0.1790 -0.2090 -0.2409
20951SOL    HW264295   7.705   0.944  10.394  0.6481  0.8954 -0.4720
20952SOL     OW64296   2.246   6.518   5.628 -0.0567  0.1446 -0.1674
20952SOL    HW164297   2.228   6.585   5.694 -0.3789 -1.4260  1.3892
20952SOL    HW264298   2.338   6.496   5.641 -0.0502  0.0015 -0.4344
20953SOL     OW64299   7.639   0.308   7.196  0.6523  0.4664 -0.5382
20953SOL    HW164300   7.728   0.318   7.231  0.8660  0.1028 -0.9637
20953SOL    HW264301   7.598   0.393   7.209 -0.1139 -0.2637  2.8725
20954SOL     OW64302   0.328   6.021   5.121  0.0574  0.2128  0.3536
20954SOL    HW164303   0.414   6.062   5.116  0.4590 -0.4741  1.3112
20954SOL    HW264304   0.342   5.932   5.088 -0.5869  0.4861 -0.7354
20955SOL     OW64305   6.321   4.804   3.322 -0.2768 -0.0263 -0.4099
20955SOL    HW164306   6.363   4.745   3.258  0.8845  0.0491  0.2547
20955SOL    HW264307   6.331   4.759   3.406 -1.7725 -0.1060 -0.2524
20956SOL     OW64308   1.224   0.595  11.776 -0.7026 -0.0176 -0.3366
20956SOL    HW164309   1.271   0.516  11.747 -0.1698  0.2608 -0.2476
20956SOL    HW264310   1.135   0.584  11.742 -0.8582 -1.0352  0.3572
20957SOL     OW64311   0.553   6.811  11.924 -0.1467  0.5610  0.2595
20957SOL    HW164312   0.556   6.808  12.020 -0.8724  1.8122  0.3386
20957SOL    HW264313   0.461   6.799  11.902  0.1509 -0.7920 -0.3562
20958SOL     OW64314   5.855   3.467   8.318  0.5041  0.0442  0.0960
20958SOL    HW164315   5.879   3.524   8.392 -0.9763  0.0725  0.5928
20958SOL    HW264316   5.937   3.452   8.272  0.9647  2.7564 -0.1764
20959SOL     OW64317   3.942   2.289   8.852  0.3026 -0.3760  0.6134
20959SOL    HW164318   3.981   2.204   8.834 -0.4702 -0.7381  0.6030
20959SOL    HW264319   3.898   2.313   8.770  0.3319 -0.0684  0.6858
20960SOL     OW64320   2.073   3.029   0.224  0.3208  0.5875  0.0308
20960SOL    HW164321   2.166   3.044   0.205  0.5650  0.0656  0.7822
20960SOL    HW264322   2.028   3.056   0.144  1.1501  0.4818 -0.4841
20961SOL     OW64323   0.288   3.264   5.345 -0.1709 -0.0152  0.4592
20961SOL    HW164324   0.250   3.325   5.282 -1.6692 -0.2171  1.1298
20961SOL    HW264325   0.339   3.203   5.292 -2.7928 -1.2516 -0.8266
20962SOL     OW64326   7.156   2.485   2.232  0.3283  0.2609 -0.2307
20962SOL    HW164327   7.137   2.555   2.170 -0.0380 -0.7308 -1.2707
20962SOL    HW264328   7.195   2.416   2.179 -0.9589 -1.0186  0.4375
20963SOL     OW64329   4.128   4.071   8.588  0.9759  0.0286  0.3394
20963SOL    HW164330   4.202   4.130   8.601  0.9236  0.3448 -0.7053
20963SOL    HW264331   4.056   4.128   8.564  0.2927 -0.2507  1.6351
20964SOL     OW64332   6.256   1.389  10.433 -0.1113  0.2079  0.6638
20964SOL    HW164333   6.313   1.409  10.507 -1.0587  1.4013  1.0878
20964SOL    HW264334   6.182   1.448  10.442 -0.8716 -0.5140 -0.5293
20965SOL     OW64335   6.803   3.971   0.813  0.5705  0.0113 -0.2074
20965SOL    HW164336   6.744   3.914   0.764  0.5497 -0.1562  0.0131
20965SOL    HW264337   6.861   4.007   0.746  1.9749 -1.9246 -0.1212
20966SOL     OW64338   2.674   7.171   8.450 -0.0808 -0.8652 -0.0491
20966SOL    HW164339   2.588   7.205   8.474  0.4321  1.1718 -0.8502
20966SOL    HW264340   2.659   7.127   8.366 -0.5928 -1.9256  0.5716
20967SOL     OW64341   5.351   3.292   3.281  0.1993 -0.1048 -0.1529
20967SOL    HW164342   5.412   3.362   3.303 -0.2874  0.8246 -1.5662
20967SOL    HW264343   5.372   3.221   3.341  1.0002  1.0945  1.0384
20968SOL     OW64344   5.069   5.903   9.426  0.2793  0.8257 -0.6388
20968SOL    HW164345   5.028   5.982   9.463 -0.1433  0.2872  0.0868
20968SOL    HW264346   5.142   5.936   9.373 -1.1908  1.8396 -2.1410
20969SOL     OW64347   5.277   4.876   2.635 -0.0493  0.1768  0.4927
20969SOL    HW164348   5.253   4.850   2.546 -0.8117  1.8289  0.1610
20969SOL    HW264349   5.265   4.797   2.688  1.8705 -1.2416 -1.0829
20970SOL     OW64350   3.081   7.375   7.222  0.1028  0.0918  0.1126
20970SOL    HW164351   3.056   7.363   7.313  2.2826 -2.4838  0.4873
20970SOL    HW264352   3.163   7.423   7.225  1.7546 -2.4912 -0.1642
20971SOL     OW64353   0.961   5.768   2.697 -0.4106 -0.0189  0.2804
20971SOL    HW164354   0.871   5.738   2.709 -0.3385 -0.2499  0.2664
20971SOL    HW264355   1.009   5.728   2.770 -0.5017  0.9133  0.8569
20972SOL     OW64356   4.588   1.674  10.063 -0.4148  0.0988 -0.1696
20972SOL    HW164357   4.555   1.762  10.046  0.0623 -0.0779 -2.3178
20972SOL    HW264358   4.509   1.619  10.069 -0.6643  0.1493 -2.3103
20973SOL     OW64359   7.572   3.560  12.367  0.2180 -0.0592 -0.6447
20973SOL    HW164360   7.574   3.635  12.426 -0.6810  0.9223 -1.8128
20973SOL    HW264361   7.549   3.486  12.423 -1.9971  1.0629  0.0670
20974SOL     OW64362   1.575   7.537   1.399 -0.0647  0.2030  0.2501
20974SOL    HW164363   1.608   7.452   1.428  1.3838  1.0651  1.2540
20974SOL    HW264364   1.653   7.591   1.389 -0.9741  1.4991 -0.1190
20975SOL     OW64365   0.110   7.280   3.332 -0.1605 -0.2013  0.3497
20975SOL    HW164366   0.193   7.327   3.344 -0.6469  0.7417  0.1090
20975SOL    HW264367   0.136   7.189   3.318  0.8983  0.2513 -0.7805
20976SOL     OW64368   1.401   2.373   1.814 -0.2842  0.1339  0.1955
20976SOL    HW164369   1.322   2.415   1.847 -0.6276  0.4020 -0.8949
20976SOL    HW264370   1.466   2.444   1.809 -0.6064  0.3807 -0.8319
20977SOL     OW64371   4.889   4.040   4.106 -0.2554 -0.4217  0.1377
20977SOL    HW164372   4.840   4.122   4.106 -0.4678 -0.5310  0.9851
20977SOL    HW264373   4.839   3.982   4.048  0.6470  0.4448 -1.5699
20978SOL     OW64374   2.229   7.751   1.268 -0.1058  0.2952  0.1038
20978SOL    HW164375   2.321   7.726   1.265 -0.0356  0.6043 -0.8552
20978SOL    HW264376   2.197   7.716   1.351  0.6138 -0.7191 -0.0222
20979SOL     OW64377   4.266   6.406   1.543  0.0764 -0.2550 -0.1909
20979SOL    HW164378   4.181   6.365   1.562  0.8325 -1.0881  1.5901
20979SOL    HW264379   4.312   6.342   1.489  0.1094 -0.4440  0.0572
20980SOL     OW64380   4.180   6.758   5.320 -0.1855 -0.3053  0.2992
20980SOL    HW164381   4.163   6.715   5.236 -1.3147  1.3777 -0.4046
20980SOL    HW264382   4.163   6.691   5.385 -1.2731 -1.1115 -0.7654
20981SOL     OW64383   6.417   2.583   4.066  0.1248  0.2596 -0.5378
20981SOL    HW164384   6.323   2.580   4.086  0.3799  2.7157  1.7156
20981SOL    HW264385   6.454   2.508   4.113 -0.5918 -0.2677 -0.7924
20982SOL     OW64386   3.095   2.142  10.740 -0.4972  0.3146  0.5182
20982SOL    HW164387   3.001   2.154  10.756 -0.1401  1.2654  2.1068
20982SOL    HW264388   3.133   2.132  10.827  1.0819  1.5666  0.0197
20983SOL     OW64389   6.495   2.496   9.452  0.2442 -0.4061  0.1136
20983SOL    HW164390   6.448   2.414   9.439 -2.0612  0.7979  0.3589
20983SOL    HW264391   6.546   2.482   9.532  0.5144 -1.8493 -0.2885
20984SOL     OW64392   3.430   7.447   3.923  0.0376 -0.3019  0.0543
20984SOL    HW164393   3.434   7.376   3.859  0.5280 -1.6370  1.5013
20984SOL    HW264394   3.343   7.439   3.962  0.0044  0.0482  0.0526
20985SOL     OW64395   1.839   4.527   9.865  0.2658  0.0823 -0.1188
20985SOL    HW164396   1.798   4.471   9.799 -1.0512  0.0920  0.6713
20985SOL    HW264397   1.782   4.521   9.941  2.0082 -0.3033  1.2167
20986SOL     OW64398   7.613   0.636   1.447 -0.2225 -0.4753 -0.0181
20986SOL    HW164399   7.600   0.582   1.369  1.2971 -0.4603 -0.3230
20986SOL    HW264400   7.583   0.581   1.519 -0.2538 -1.0846 -0.4826
20987SOL     OW64401   6.960   2.605   4.479 -0.2007 -0.0990  0.3533
20987SOL    HW164402   7.002   2.683   4.444  0.2956  0.0524  1.2532
20987SOL    HW264403   7.000   2.532   4.431  0.0719  0.1314  0.2295
20988SOL     OW64404   3.552   1.003  12.245 -0.7209 -0.1804 -0.0894
20988SOL    HW164405   3.591   1.075  12.195 -0.1167  0.6876  1.5504
20988SOL    HW264406   3.471   1.039  12.280  0.4294  0.3398  2.1805
20989SOL     OW64407   4.741   7.406   6.200 -0.1852  0.1565  0.2570
20989SOL    HW164408   4.729   7.427   6.107 -0.8820 -0.2153  0.2586
20989SOL    HW264409   4.750   7.310   6.201 -0.8223  0.0985  0.6398
20990SOL     OW64410   1.122   6.109   4.931  0.2820 -0.6820  0.3651
20990SOL    HW164411   1.043   6.063   4.961  0.0973 -0.5120  0.1412
20990SOL    HW264412   1.128   6.186   4.987 -0.4616  0.0148 -0.4820
20991SOL     OW64413   4.010   7.311   8.254  0.2623  0.3678  0.6502
20991SOL    HW164414   4.037   7.225   8.285 -0.8891 -0.2703 -0.0443
20991SOL    HW264415   4.072   7.333   8.185  1.4261  0.7556  1.7933
20992SOL     OW64416   3.546   1.152   5.620 -0.1430  0.4631  0.3563
20992SOL    HW164417   3.451   1.165   5.625 -0.1141  0.3958  1.3526
20992SOL    HW264418   3.571   1.126   5.709  0.7239 -0.1220 -0.0466
20993SOL     OW64419   0.313   0.319   0.895 -0.3441  0.6005  0.0020
20993SOL    HW164420   0.364   0.345   0.818 -1.2452 -0.6117 -1.0652
20993SOL    HW264421   0.301   0.224   0.884 -1.4025  0.5862  1.0832
20994SOL     OW64422   1.723   5.360   8.285  0.4208  0.3663  0.3280
20994SOL    HW164423   1.645   5.415   8.281  0.3819  0.3414  0.7337
20994SOL    HW264424   1.777   5.401   8.353  0.6314  0.2127  0.2528
20995SOL     OW64425   2.575   2.886   2.249 -0.1839  0.0721 -0.0549
20995SOL    HW164426   2.524   2.830   2.192  0.2784 -1.7815  1.2435
20995SOL    HW264427   2.511   2.945   2.289 -1.2495 -1.7372  1.0194
20996SOL     OW64428   1.623   1.843   1.344 -0.3934 -0.2790 -0.2178
20996SOL    HW164429   1.567   1.840   1.266  0.1368  0.6560 -0.6461
20996SOL    HW264430   1.580   1.906   1.402 -0.0160  0.1266 -0.3736
20997SOL     OW64431   4.510   2.363   8.957 -0.2203  0.2129 -0.7072
20997SOL    HW164432   4.500   2.441   9.013  0.6297 -1.3784  1.8582
20997SOL    HW264433   4.579   2.387   8.895 -1.2157  2.0801 -1.1631
20998SOL     OW64434   2.581   5.911   6.844 -0.4170  0.4774  0.0189
20998SOL    HW164435   2.621   5.952   6.921  0.7939  0.5557 -0.6145
20998SOL    HW264436   2.489   5.903   6.866  0.0571 -0.3770  1.8542
20999SOL     OW64437   5.457   0.411  10.159 -0.2537 -0.5787 -0.2696
20999SOL    HW164438   5.431   0.353  10.231 -0.8386  0.0784  0.0618
20999SOL    HW264439   5.430   0.498  10.187  0.1763 -0.2063 -0.9736
21000SOL     OW64440   0.227   0.962   9.941  0.0012 -0.2202 -0.2875
21000SOL    HW164441   0.311   1.005   9.928 -0.2444  0.7255  1.0203
21000SOL    HW264442   0.165   1.033   9.956 -0.3671 -0.9519  2.2402
21001SOL     OW64443   7.927   3.634   5.858 -0.1417  0.2847  0.1844
21001SOL    HW164444   7.904   3.686   5.935 -0.0568  0.4568  0.0928
21001SOL    HW264445   7.867   3.559   5.861 -0.8805  0.8470 -0.1846
21002SOL     OW64446   7.037   4.918   3.747  0.6326  0.1401  0.1171
21002SOL    HW164447   7.074   4.855   3.686  2.7855  1.8764 -0.5104
21002SOL    HW264448   7.099   4.919   3.821  0.0905  0.7746  0.5779
21003SOL     OW64449   3.239   0.764   9.997 -0.3555  0.2940 -0.5153
21003SOL    HW164450   3.303   0.821   9.955 -0.4797  0.3307 -0.6561
21003SOL    HW264451   3.158   0.816   9.999 -1.7285 -1.2747 -4.4826
21004SOL     OW64452   1.910   7.942   1.103  0.4002 -0.0756  0.1800
21004SOL    HW164453   2.003   7.923   1.089  0.7931  1.4502  0.5627
21004SOL    HW264454   1.906   7.974   1.193 -0.5092 -0.1121  0.1574
21005SOL     OW64455   7.688   1.008   8.598 -0.0724 -0.2556 -0.4782
21005SOL    HW164456   7.755   0.995   8.664 -0.6509 -0.4281  0.0754
21005SOL    HW264457   7.720   1.083   8.547 -0.2006  0.6706  0.7488
21006SOL     OW64458   3.686   0.302   6.302 -0.3573  0.0961  0.8322
21006SOL    HW164459   3.681   0.282   6.208 -0.0175  1.4463  0.5144
21006SOL    HW264460   3.692   0.216   6.344  1.2247 -0.4941 -0.4854
21007SOL     OW64461   7.430   5.181   7.418 -0.3800 -0.2047  0.1766
21007SOL    HW164462   7.367   5.224   7.476 -1.3905 -1.3426 -0.0446
21007SOL    HW264463   7.407   5.213   7.331 -0.7557 -0.7171  0.0811
21008SOL     OW64464   1.240   1.087   7.274  0.1692  0.0838 -0.3037
21008SOL    HW164465   1.149   1.064   7.293  0.1541  1.3479  1.3321
21008SOL    HW264466   1.264   1.030   7.201 -1.7346 -0.7026 -0.3731
21009SOL     OW64467   1.004   5.259  10.580  0.0372 -0.4629 -0.1028
21009SOL    HW164468   1.091   5.287  10.606  0.3154 -1.5108  0.1576
21009SOL    HW264469   0.981   5.190  10.642 -1.6699  0.8864  0.8426
21010SOL     OW64470   3.107   1.969   4.210 -0.2272 -0.3320  0.3833
21010SOL    HW164471   3.184   1.918   4.235 -0.5084 -0.7813  0.3342
21010SOL    HW264472   3.084   2.018   4.288  0.6202  0.4666  0.1584
21011SOL     OW64473   3.021   0.496   8.707  0.4091 -0.4444  0.1229
21011SOL    HW164474   2.988   0.526   8.622  1.0914 -1.0731 -0.3800
21011SOL    HW264475   2.944   0.493   8.764 -0.2957 -1.3098 -0.8426
21012SOL     OW64476   1.539   6.690   1.969 -0.1243  0.7531  0.0808
21012SOL    HW164477   1.557   6.758   1.904 -0.0885  1.2082  0.5570
21012SOL    HW264478   1.589   6.717   2.046  0.9506 -0.5105 -0.1396
21013SOL     OW64479   5.196   1.270   0.608 -1.0416  0.1651  0.1538
21013SOL    HW164480   5.252   1.212   0.660 -0.4879 -1.0079 -1.6292
21013SOL    HW264481   5.125   1.214   0.578 -0.3937  0.2814 -1.7743
21014SOL     OW64482   2.320   4.268   9.235  0.4188 -0.1048 -0.7125
21014SOL    HW164483   2.229   4.267   9.205 -0.4581 -0.8059  1.7474
21014SOL    HW264484   2.341   4.361   9.246  0.3384  0.1028 -2.1303
21015SOL     OW64485   6.925   3.997   0.119  0.0165  0.2081  0.7765
21015SOL    HW164486   7.015   3.984   0.146 -0.1596  0.2120  1.3805
21015SOL    HW264487   6.898   3.913   0.082  0.7601  0.6752 -0.8858
21016SOL     OW64488   3.201   4.697   0.697  0.2262 -0.3668 -0.3989
21016SOL    HW164489   3.163   4.751   0.766  0.3326 -0.0239 -0.6062
21016SOL    HW264490   3.295   4.713   0.704  0.1927  0.0760 -0.9652
21017SOL     OW64491   6.347   0.568   6.354  0.0580 -0.3698 -0.1533
21017SOL    HW164492   6.394   0.547   6.434  1.5856  1.1403 -0.5692
21017SOL    HW264493   6.274   0.623   6.382  0.1375 -0.4897  0.2869
21018SOL     OW64494   3.113   3.011  11.010 -0.3326  0.4858  0.6017
21018SOL    HW164495   3.128   3.096  11.051  1.1810 -0.0041  1.1438
21018SOL    HW264496   3.192   2.995  10.959 -0.3258 -0.8432  0.9826
21019SOL     OW64497   7.006   4.363   9.582  0.0662  0.5898  0.0396
21019SOL    HW164498   7.092   4.399   9.556  0.4135 -0.7343 -0.7756
21019SOL    HW264499   7.012   4.270   9.560 -1.4969  0.4209  0.2312
21020SOL     OW64500   7.396   0.416   3.289 -0.4359 -0.5284 -0.0772
21020SOL    HW164501   7.361   0.421   3.201  1.2365  0.8203 -0.7196
21020SOL    HW264502   7.483   0.456   3.283 -0.9976  1.3389  2.5294
21021SOL     OW64503   1.104   6.904   8.911  0.0736  0.3158  0.1271
21021SOL    HW164504   1.070   6.825   8.868  1.1999 -0.2278  0.1858
21021SOL    HW264505   1.156   6.948   8.844  2.1417 -0.7274  0.9399
21022SOL     OW64506   0.691   6.304  12.425 -0.3948 -0.2947 -0.1493
21022SOL    HW164507   0.731   6.366  12.365 -0.8704 -0.0580 -0.2256
21022SOL    HW264508   0.697   6.345  12.511  0.2437 -0.6130 -0.0320
21023SOL     OW64509   3.338   1.966   3.507  0.9245 -0.0804 -0.3809
21023SOL    HW164510   3.323   1.977   3.413  4.1123 -0.5657 -1.0611
21023SOL    HW264511   3.264   1.914   3.537 -0.3249  0.3098 -2.5403
21024SOL     OW64512   1.310   2.441   0.136 -0.2355 -0.0205  0.8651
21024SOL    HW164513   1.321   2.512   0.073 -0.2138 -0.2535  0.6054
21024SOL    HW264514   1.299   2.485   0.220 -2.7142  0.4350  0.4033
21025SOL     OW64515   2.007   3.952   6.586 -0.2691  0.0875  0.2391
21025SOL    HW164516   2.042   3.871   6.549  1.6320  0.4074  1.2058
21025SOL    HW264517   2.023   4.018   6.519  2.9516  0.6209  1.3440
21026SOL     OW64518   3.056   3.177   7.951 -0.0700  0.0249  0.0940
21026SOL    HW164519   2.999   3.184   8.028 -0.9628  0.6123 -0.5903
21026SOL    HW264520   3.011   3.230   7.884  1.3447  0.5953 -0.4354
21027SOL     OW64521   3.460   0.457   1.275  0.0590  0.4573 -0.1790
21027SOL    HW164522   3.369   0.463   1.305  0.4074  0.0817  0.9958
21027SOL    HW264523   3.457   0.487   1.184 -1.7027 -2.0480 -1.0523
21028SOL     OW64524   0.911   3.153   2.036 -0.0859  0.4203 -0.5217
21028SOL    HW164525   0.844   3.163   2.104 -2.2076  0.6908 -2.5290
21028SOL    HW264526   0.973   3.225   2.052 -0.1098  0.0556  1.4950
21029SOL     OW64527   6.078   6.733   7.078  0.0373 -0.1924 -0.3186
21029SOL    HW164528   6.078   6.724   7.173  2.5996  0.1965 -0.2103
21029SOL    HW264529   6.108   6.648   7.046  1.3918  0.3541 -0.5975
21030SOL     OW64530   7.667   7.641   5.356  0.1010 -0.1399 -0.0582
21030SOL    HW164531   7.701   7.553   5.339  0.2447  0.3002 -2.4720
21030SOL    HW264532   7.745   7.694   5.375 -0.0159 -0.5603  1.7095
21031SOL     OW64533   6.860   2.513   1.154 -0.4132  0.2290 -0.2429
21031SOL    HW164534   6.766   2.496   1.154 -0.2188 -0.8962 -0.0881
21031SOL    HW264535   6.891   2.477   1.071  0.0255 -0.3022  0.1429
21032SOL     OW64536   1.219   2.950   0.481 -0.3223 -0.1699 -0.2769
21032SOL    HW164537   1.276   2.883   0.445 -0.2687 -0.1566 -0.2189
21032SOL    HW264538   1.175   2.989   0.405  0.0317  0.0780 -0.3576
21033SOL     OW64539   7.532   0.994   1.451 -0.0080 -0.2999  0.0588
21033SOL    HW164540   7.477   0.978   1.528  0.4683 -0.0417  0.4556
21033SOL    HW264541   7.598   0.925   1.455  0.1888 -0.1125  0.0437
21034SOL     OW64542   0.957   2.580   0.063 -0.0511  0.4846  0.1119
21034SOL    HW164543   0.954   2.544   0.152 -1.8586  1.0768  0.3246
21034SOL    HW264544   0.926   2.670   0.072  1.8050  1.2665 -0.8241
21035SOL     OW64545   2.519   6.445  10.937  0.4027  0.3220  0.3620
21035SOL    HW164546   2.591   6.469  10.878  0.4078  0.1135  0.2819
21035SOL    HW264547   2.539   6.490  11.019  1.8877 -1.5616  1.1251
21036SOL     OW64548   5.657   3.948   9.781 -0.2773 -0.3576 -0.1334
21036SOL    HW164549   5.644   4.036   9.818  0.9062 -0.0156 -0.4845
21036SOL    HW264550   5.609   3.890   9.840  1.7367  0.1322  2.1375
21037SOL     OW64551   0.150   5.054   2.874  0.1506 -0.2274 -0.2620
21037SOL    HW164552   0.207   5.129   2.894  0.8254 -0.5656 -0.8774
21037SOL    HW264553   0.171   4.990   2.942  0.2492 -0.2153 -0.2802
21038SOL     OW64554   5.396   3.152   1.903 -0.0794 -0.0244  0.3762
21038SOL    HW164555   5.426   3.189   1.986  1.7779  0.9580 -0.6654
21038SOL    HW264556   5.476   3.122   1.860 -0.9620 -0.2399 -1.1789
21039SOL     OW64557   6.432   4.041   3.087 -0.4324 -0.0302 -0.1316
21039SOL    HW164558   6.414   4.002   3.002  0.4053  1.4360 -1.0093
21039SOL    HW264559   6.504   4.101   3.072 -0.3655  0.3852  1.5909
21040SOL     OW64560   5.889   6.763  12.288  0.2148 -0.1860  0.0821
21040SOL    HW164561   5.794   6.763  12.276 -0.0071  2.3754  1.2144
21040SOL    HW264562   5.923   6.814  12.215  0.4467  0.9999  0.9873
21041SOL     OW64563   4.199   7.355   9.704  0.2410 -0.0003  1.0943
21041SOL    HW164564   4.196   7.282   9.643 -0.4280  1.4603 -0.6961
21041SOL    HW264565   4.283   7.346   9.748  0.9951 -0.7861 -0.4479
21042SOL     OW64566   7.528   6.153   2.136  0.3618 -0.4518 -0.7278
21042SOL    HW164567   7.553   6.209   2.210 -1.3857  0.5031 -0.7919
21042SOL    HW264568   7.467   6.207   2.085  1.0468 -1.3197 -2.5403
21043SOL     OW64569   4.480   1.516   6.283 -0.5013 -0.1519  0.4908
21043SOL    HW164570   4.440   1.472   6.208 -0.7147  0.4236  0.2672
21043SOL    HW264571   4.514   1.444   6.337 -0.2429 -0.5604 -0.2082
21044SOL     OW64572   5.303   0.004   9.115  0.2892  0.3761 -0.2166
21044SOL    HW164573   5.263   0.059   9.048 -0.5444  1.0406  0.8117
21044SOL    HW264574   5.252   0.020   9.194 -0.8584 -2.8766 -0.1480
21045SOL     OW64575   4.375   7.282  11.174  0.1134  0.1242 -0.4915
21045SOL    HW164576   4.296   7.229  11.178 -0.1303  0.3913 -1.4099
21045SOL    HW264577   4.387   7.315  11.263  0.6332 -1.9482  0.2564
21046SOL     OW64578   4.590   2.396   9.920 -0.2391 -0.3016  0.5519
21046SOL    HW164579   4.601   2.490   9.933 -0.6019  0.0816 -1.4728
21046SOL    HW264580   4.611   2.356  10.004 -0.4535  1.6168  1.5513
21047SOL     OW64581   6.055   1.826   3.396 -0.3529 -0.2802 -0.4550
21047SOL    HW164582   5.992   1.822   3.468  0.4865  0.4256  0.3528
21047SOL    HW264583   6.131   1.777   3.429  0.7750  1.6369 -0.0464
21048SOL     OW64584   5.059   5.131   0.556 -0.0745  0.2022  0.0831
21048SOL    HW164585   4.991   5.064   0.547  0.1897  0.0059 -0.5161
21048SOL    HW264586   5.070   5.141   0.651  0.5237 -1.2627  0.1993
21049SOL     OW64587   7.915   0.382   2.755  0.0011  0.4529 -0.2045
21049SOL    HW164588   8.008   0.384   2.736  0.4131 -2.3585  1.0865
21049SOL    HW264589   7.902   0.451   2.821  1.5002 -0.1464  0.7638
21050SOL     OW64590   1.890   7.013  11.847  0.0182  0.2393 -0.0866
21050SOL    HW164591   1.948   7.086  11.867 -0.2265  0.6348 -0.7901
21050SOL    HW264592   1.924   6.940  11.899  0.3493  0.8117  0.5120
21051SOL     OW64593   7.510   1.502  12.309 -0.5887  0.2989  0.2066
21051SOL    HW164594   7.424   1.500  12.351 -1.2972  1.3328 -1.1197
21051SOL    HW264595   7.494   1.470  12.220  0.4228  0.3948 -0.0250
21052SOL     OW64596   7.621   2.097   3.562 -0.0902 -0.4387 -0.4833
21052SOL    HW164597   7.648   2.138   3.644  0.7864 -0.0627 -0.9368
21052SOL    HW264598   7.600   2.007   3.586  1.3193 -0.6700 -0.0262
21053SOL     OW64599   5.266   4.076   8.530  0.2379  0.0449 -0.4442
21053SOL    HW164600   5.258   4.027   8.612  1.0518 -1.2372 -1.0939
21053SOL    HW264601   5.179   4.074   8.491  0.1126 -0.3327 -0.1454
21054SOL     OW64602   0.280   0.036   7.116  0.6856 -0.2579  0.2172
21054SOL    HW164603   0.219   0.057   7.187  1.8444 -1.1409  1.5322
21054SOL    HW264604   0.362   0.079   7.140  1.7850 -2.4367  0.6920
21055SOL     OW64605   4.686   2.628   7.593  0.3405 -0.5289 -0.1862
21055SOL    HW164606   4.601   2.649   7.553 -0.6494 -0.8696  1.6186
21055SOL    HW264607   4.667   2.555   7.652  1.6899  0.0196  0.9776
21056SOL     OW64608   3.666   2.301   9.812 -0.1181 -0.0324  0.4396
21056SOL    HW164609   3.577   2.324   9.838  0.1776 -0.7482  2.1698
21056SOL    HW264610   3.662   2.208   9.789  0.1775 -0.0528  0.4600
21057SOL     OW64611   7.067   4.373   5.226  0.0006  0.0990  0.3184
21057SOL    HW164612   7.031   4.309   5.165  0.3787  0.1094  0.0834
21057SOL    HW264613   6.990   4.421   5.259 -0.4991 -1.6549  1.8794
21058SOL     OW64614   0.004   5.715   4.284 -0.3769 -0.1364 -0.1469
21058SOL    HW164615  -0.034   5.738   4.199 -1.4589 -1.4561 -0.0495
21058SOL    HW264616   0.004   5.797   4.333 -0.7459  0.4156 -1.0389
21059SOL     OW64617   4.168   5.970  11.892  0.0258 -0.0101 -0.1349
21059SOL    HW164618   4.098   6.011  11.942  0.5736 -1.3726  1.8773
21059SOL    HW264619   4.168   5.879  11.922  0.7592 -0.7599 -2.2637
21060SOL     OW64620   3.440   5.103   9.796 -0.1374 -0.4123  0.4097
21060SOL    HW164621   3.525   5.070   9.768 -0.8871 -0.1040 -2.5146
21060SOL    HW264622   3.436   5.192   9.762 -1.6922 -0.4775  0.3568
21061SOL     OW64623   7.918   6.825  12.354  0.1809  0.0869  0.1437
21061SOL    HW164624   7.876   6.799  12.436 -0.0926 -0.9082 -0.3008
21061SOL    HW264625   8.009   6.799  12.364  0.2510  0.3957  0.3138
21062SOL     OW64626   6.080   4.934   3.683  0.1594 -0.1237  0.2170
21062SOL    HW164627   6.143   4.949   3.753 -1.2363  0.4258  1.4186
21062SOL    HW264628   5.999   4.975   3.714 -0.7795 -0.7224 -1.2915
21063SOL     OW64629   0.432   2.002   0.172 -0.1734 -0.6100  0.6385
21063SOL    HW164630   0.374   2.071   0.205  1.3735  1.2866 -0.4081
21063SOL    HW264631   0.377   1.951   0.112 -0.9614  0.6967  0.1986
21064SOL     OW64632   0.534   6.397   6.064  0.0149 -0.1693 -0.1455
21064SOL    HW164633   0.487   6.480   6.057 -0.9206 -0.6398  0.3633
21064SOL    HW264634   0.589   6.407   6.141 -1.2575 -0.5558  0.8491
21065SOL     OW64635   3.377   2.405   4.785 -0.4320 -0.0928 -0.1148
21065SOL    HW164636   3.360   2.336   4.720  1.5939 -2.0249  1.2730
21065SOL    HW264637   3.379   2.358   4.869  1.2654  1.6234  0.8513
21066SOL     OW64638   1.659   6.435  11.851  0.6715 -0.1087 -0.0571
21066SOL    HW164639   1.698   6.506  11.801  0.7888  1.2787  1.8876
21066SOL    HW264640   1.727   6.409  11.913 -0.9839  1.6234  2.6664
21067SOL     OW64641   6.269   2.523   8.284 -0.1844  0.0554 -0.0829
21067SOL    HW164642   6.304   2.553   8.368 -0.0442  0.7215 -0.3704
21067SOL    HW264643   6.265   2.428   8.292  1.9578 -0.0877 -0.1152
21068SOL     OW64644   6.157   6.972   1.354 -0.0545  0.2940  0.5381
21068SOL    HW164645   6.204   7.021   1.287  0.0737 -1.0702 -0.4209
21068SOL    HW264646   6.142   6.886   1.314  0.2732 -0.6589  2.3737
21069SOL     OW64647   4.732   3.520  11.611  0.4440  0.0521 -0.5864
21069SOL    HW164648   4.814   3.501  11.655  0.2454  0.1505 -0.1697
21069SOL    HW264649   4.700   3.601  11.652  1.6393  1.7759 -2.8069
21070SOL     OW64650   4.949   3.952   2.596  0.0389  0.5039  0.1061
21070SOL    HW164651   5.035   3.916   2.574  0.5238  2.4383 -1.4838
21070SOL    HW264652   4.967   4.042   2.623 -1.4909  1.0181 -0.4677
21071SOL     OW64653   4.271   0.715   2.716  0.0377  0.6479 -0.3237
21071SOL    HW164654   4.224   0.634   2.695 -1.3047  1.4493 -0.5085
21071SOL    HW264655   4.340   0.687   2.777 -0.3377 -0.6406 -0.4454
21072SOL     OW64656   4.491   1.023   2.316  0.4427  0.4100  0.5699
21072SOL    HW164657   4.494   1.052   2.407 -1.6932  0.5684  0.6304
21072SOL    HW264658   4.486   0.927   2.322 -1.6087  0.4945  0.7303
21073SOL     OW64659   0.767   0.250   9.682 -0.2774  0.4704 -0.2910
21073SOL    HW164660   0.860   0.237   9.700 -0.0507  2.0417 -0.2090
21073SOL    HW264661   0.749   0.197   9.604 -0.2244 -2.8570  1.7780
21074SOL     OW64662   5.683   2.887   0.076  0.3837 -0.4985  0.5298
21074SOL    HW164663   5.759   2.928   0.035 -0.1952 -1.0069 -1.1217
21074SOL    HW264664   5.614   2.892   0.010 -1.3193  0.7497  2.3051
21075SOL     OW64665   0.179   3.831   6.426  0.4981  0.3094  0.2404
21075SOL    HW164666   0.146   3.891   6.360 -2.8486 -0.6261  0.8957
21075SOL    HW264667   0.258   3.873   6.460 -1.0088  3.7576 -0.1393
21076SOL     OW64668   7.729   1.668   5.517 -0.3066  0.6860  0.2596
21076SOL    HW164669   7.803   1.659   5.577  0.8594  0.4369 -1.1693
21076SOL    HW264670   7.658   1.621   5.560  0.7177 -0.1362  1.1006
21077SOL     OW64671   5.945   2.717   0.737 -0.2878 -0.3206 -0.1616
21077SOL    HW164672   5.978   2.749   0.653 -0.4038 -2.4866 -1.1081
21077SOL    HW264673   5.914   2.628   0.718 -0.4422 -0.8213  2.1513
21078SOL     OW64674   3.302   2.778   3.412  0.3865  0.2313  0.1882
21078SOL    HW164675   3.310   2.775   3.507  0.1758  0.0766  0.2008
21078SOL    HW264676   3.297   2.872   3.391  0.1165  0.2559  0.3569
21079SOL     OW64677   6.415   1.325   0.923  0.4030 -0.3978  0.2361
21079SOL    HW164678   6.420   1.325   0.828 -3.1257 -0.0785 -0.0707
21079SOL    HW264679   6.413   1.417   0.948 -2.0158 -0.3663  0.2204
21080SOL     OW64680   1.787   1.243   8.911 -0.0358  0.1650  0.1279
21080SOL    HW164681   1.833   1.304   8.853 -0.9378 -0.7700 -1.6572
21080SOL    HW264682   1.745   1.298   8.976  2.9193  1.1193  1.4383
21081SOL     OW64683   4.242   1.488   7.064  0.0786  0.2458 -0.5699
21081SOL    HW164684   4.151   1.475   7.039 -0.6468  1.7418  1.0655
21081SOL    HW264685   4.290   1.490   6.981 -1.0156 -2.5515 -1.3869
21082SOL     OW64686   3.692   5.864   5.964 -0.4228 -0.3139 -0.0448
21082SOL    HW164687   3.685   5.884   5.871  0.0390  0.0447 -0.0052
21082SOL    HW264688   3.602   5.871   5.997 -0.7101 -1.1968 -0.6064
21083SOL     OW64689   1.769   5.728   5.561  0.2861 -0.2819 -0.1338
21083SOL    HW164690   1.787   5.815   5.596  1.3423 -0.6566  0.2863
21083SOL    HW264691   1.760   5.741   5.466  2.2712  0.0283 -0.3148
21084SOL     OW64692   3.902   4.443   1.248 -0.6966 -0.3957  0.0164
21084SOL    HW164693   3.903   4.389   1.169  0.3662 -1.1684  0.5450
21084SOL    HW264694   3.852   4.521   1.222 -0.2276 -0.5476 -1.4612
21085SOL     OW64695   0.362   0.264   1.788 -0.4192  0.2942  0.6878
21085SOL    HW164696   0.400   0.306   1.865  2.4259 -1.0657  0.1841
21085SOL    HW264697   0.416   0.295   1.715 -1.5554 -0.2245 -0.4128
21086SOL     OW64698   2.016   0.218  10.474  0.4145  0.1842  0.4280
21086SOL    HW164699   1.965   0.163  10.415  0.3046  0.3498  0.3683
21086SOL    HW264700   2.045   0.159  10.543  0.2195  0.0704  0.4130
21087SOL     OW64701   6.021   1.638  11.984  0.5336 -0.3735  0.1274
21087SOL    HW164702   5.998   1.566  12.042  1.2493 -1.7767 -1.2570
21087SOL    HW264703   6.111   1.662  12.009  1.4131 -1.9725 -1.2689
21088SOL     OW64704   1.802   0.455  10.022 -0.1579 -0.0163  0.2904
21088SOL    HW164705   1.874   0.396  10.043  0.7131  0.6657 -0.6212
21088SOL    HW264706   1.739   0.444  10.092  1.5022  0.4304  1.9246
21089SOL     OW64707   7.284   6.014   1.386 -0.3936  0.3527  0.4743
21089SOL    HW164708   7.212   6.072   1.360 -0.6910 -0.7018 -1.1607
21089SOL    HW264709   7.304   5.963   1.308  0.5465 -1.0619  1.5887
21090SOL     OW64710   0.581   6.642   1.942  0.2092 -0.3740  0.2126
21090SOL    HW164711   0.675   6.655   1.929  0.0856  0.2038 -0.1368
21090SOL    HW264712   0.569   6.547   1.942  1.0156 -0.5102  1.8868
21091SOL     OW64713   5.819   4.025   0.493  0.4382  0.2672  0.2238
21091SOL    HW164714   5.835   4.108   0.537  1.4827 -0.4617  1.3000
21091SOL    HW264715   5.792   3.965   0.563  2.9683 -1.1517  0.1442
21092SOL     OW64716   2.645   0.220   7.477 -0.2006 -0.0229 -0.3372
21092SOL    HW164717   2.583   0.177   7.537  1.5511 -2.1783  0.0708
21092SOL    HW264718   2.728   0.219   7.525  0.2551  2.6002 -0.9458
21093SOL     OW64719   0.005   3.354   7.203 -0.0306  0.2064  0.7653
21093SOL    HW164720   0.097   3.370   7.224 -0.0018  0.0485  0.7577
21093SOL    HW264721   0.008   3.296   7.128 -0.1363 -0.5062  1.3008
21094SOL     OW64722   3.149   7.547   2.568  0.1909 -0.1572  0.1879
21094SOL    HW164723   3.081   7.610   2.591 -0.4427 -1.0720  0.9172
21094SOL    HW264724   3.140   7.477   2.633  1.0940 -0.8347 -0.3863
21095SOL     OW64725   5.598   6.970  12.305 -0.2570 -0.1880  0.1326
21095SOL    HW164726   5.693   6.973  12.313 -0.2705 -1.1313  0.8197
21095SOL    HW264727   5.567   7.034  12.369 -0.0614  1.9577 -1.8069
21096SOL     OW64728   0.012   6.789  11.520 -0.1042  0.1523  0.1909
21096SOL    HW164729   0.087   6.792  11.461 -0.4319  0.4517 -0.2189
21096SOL    HW264730  -0.063   6.806  11.464 -0.5388 -0.6602  0.5060
21097SOL     OW64731   2.763   0.788   7.969  0.8170  0.4434  0.6186
21097SOL    HW164732   2.766   0.865   8.026 -1.2229  1.2500 -0.2851
21097SOL    HW264733   2.808   0.720   8.019  1.7617  1.9323  1.8792
21098SOL     OW64734   2.865   4.206   1.594  0.0509 -0.2261 -0.1270
21098SOL    HW164735   2.949   4.247   1.614 -0.6268  1.7033 -1.0236
21098SOL    HW264736   2.800   4.263   1.635 -0.8952 -0.9899 -0.5294
21099SOL     OW64737   3.068   6.164  10.627  0.0232 -0.7064 -0.1709
21099SOL    HW164738   3.124   6.241  10.634  0.9794 -1.4104  0.1566
21099SOL    HW264739   3.095   6.108  10.700 -0.8228 -1.2478 -0.2555
21100SOL     OW64740   7.273   0.417   3.051  0.0789 -0.5450  0.9747
21100SOL    HW164741   7.284   0.326   3.022 -0.4553  0.3118 -2.3833
21100SOL    HW264742   7.346   0.463   3.009 -1.8891  1.1522 -0.8234
21101SOL     OW64743   7.596   7.031   0.545 -0.2762  0.1493 -0.1415
21101SOL    HW164744   7.593   7.087   0.624 -1.7849 -1.1379  0.7809
21101SOL    HW264745   7.637   7.086   0.479 -1.1035  2.1412  0.8964
21102SOL     OW64746   2.324   1.215   3.703 -0.3021  0.6533 -0.1068
21102SOL    HW164747   2.250   1.269   3.675  0.0300  2.0449  1.5456
21102SOL    HW264748   2.287   1.155   3.768 -0.0950  1.0554  0.3957
21103SOL     OW64749   1.233   4.864   4.165 -0.7296  0.3694 -0.3888
21103SOL    HW164750   1.190   4.785   4.198 -2.0569  0.6087 -1.4409
21103SOL    HW264751   1.282   4.898   4.240 -0.3120 -1.3199  0.1366
21104SOL     OW64752   7.097   4.400   2.144  0.1963 -0.2805  0.3387
21104SOL    HW164753   7.084   4.338   2.216  0.2682 -0.8596 -0.1517
21104SOL    HW264754   7.107   4.485   2.188  2.2013 -0.8735  1.1581
21105SOL     OW64755   5.989   5.323   5.384 -0.0916  0.3985 -0.1690
21105SOL    HW164756   6.076   5.336   5.346  0.1644 -2.1175 -0.6272
21105SOL    HW264757   6.001   5.342   5.477  0.1918  2.9003 -0.6442
21106SOL     OW64758   4.999   3.501   0.036 -0.5704 -0.3147  0.2659
21106SOL    HW164759   5.082   3.545   0.051 -1.3977  0.7216  2.2094
21106SOL    HW264760   4.998   3.481  -0.057  1.4014  0.5567  0.0279
21107SOL     OW64761   5.487   6.575   1.058  0.3191 -0.1311 -0.4505
21107SOL    HW164762   5.571   6.587   1.014  1.3392  0.4646  1.5497
21107SOL    HW264763   5.486   6.483   1.084  1.0842  0.1855  0.8249
21108SOL     OW64764   5.163   4.088   2.939 -0.3461  0.0213 -0.5721
21108SOL    HW164765   5.098   4.111   3.005 -0.4347 -0.7516 -0.3817
21108SOL    HW264766   5.164   3.992   2.938  1.2016 -0.0005 -0.1536
21109SOL     OW64767   5.073   5.793  10.683 -0.1597  0.2240 -0.8160
21109SOL    HW164768   5.116   5.714  10.651 -0.0884 -1.3616  2.7406
21109SOL    HW264769   4.990   5.796  10.635 -0.7712 -2.8148 -0.1624
21110SOL     OW64770   1.629   3.229   2.268  0.3288  0.0590  0.3874
21110SOL    HW164771   1.536   3.208   2.267  0.5633 -1.0149 -0.5513
21110SOL    HW264772   1.664   3.183   2.344  0.2705 -0.3428  0.1702
21111SOL     OW64773   1.706   3.521   3.300 -0.3548 -0.3240 -0.3341
21111SOL    HW164774   1.687   3.517   3.394 -2.5620 -1.3410 -0.7616
21111SOL    HW264775   1.779   3.461   3.288  0.8111  0.7684  0.8658
21112SOL     OW64776   4.598   4.223   6.107  0.0337 -0.1293 -0.1899
21112SOL    HW164777   4.678   4.171   6.107  0.3104  0.1129 -3.3419
21112SOL    HW264778   4.619   4.301   6.055 -1.7333  0.8512  0.4451
21113SOL     OW64779   2.125   7.304   5.666  0.1971  0.2216  0.2005
21113SOL    HW164780   2.117   7.364   5.740 -0.8965 -0.1344  0.3910
21113SOL    HW264781   2.215   7.271   5.671  0.3633  0.7631  0.9259
21114SOL     OW64782   4.140   0.794   8.431 -0.1070 -0.1876  0.1308
21114SOL    HW164783   4.204   0.856   8.465 -0.1801  0.4194 -0.8081
21114SOL    HW264784   4.191   0.718   8.406  0.0387 -0.3431  0.8742
21115SOL     OW64785   7.386   0.331   4.536  0.3600 -0.1889 -0.4992
21115SOL    HW164786   7.369   0.267   4.605  1.8052 -0.2594 -0.1759
21115SOL    HW264787   7.382   0.280   4.455  1.1454 -0.6214 -0.2726
21116SOL     OW64788   4.867   7.404  10.092 -0.0918  0.3864 -0.5769
21116SOL    HW164789   4.782   7.362  10.103  0.2330 -0.1867 -0.2244
21116SOL    HW264790   4.907   7.358  10.019  0.4613 -0.2494  0.1169
21117SOL     OW64791   3.707   4.801   1.402  0.3340 -0.2361  0.2077
21117SOL    HW164792   3.756   4.827   1.324  1.4698 -0.7200  0.7366
21117SOL    HW264793   3.660   4.881   1.429  0.8345  0.2378 -0.3030
21118SOL     OW64794   7.821   0.851   2.330 -0.0606  0.1239 -0.3083
21118SOL    HW164795   7.737   0.888   2.303  0.3354  1.1411 -0.2219
21118SOL    HW264796   7.841   0.897   2.412  1.2032  0.8854 -1.0191
21119SOL     OW64797   3.645   2.144  12.409 -0.7257 -0.2876  0.1209
21119SOL    HW164798   3.690   2.220  12.447 -1.6341  0.2014  0.2372
21119SOL    HW264799   3.705   2.112  12.342 -0.4739  0.7311 -0.1575
21120SOL     OW64800   7.478   5.176   6.520  0.1478 -0.4310 -0.0431
21120SOL    HW164801   7.445   5.122   6.592  0.0325  0.5266  0.6360
21120SOL    HW264802   7.399   5.213   6.480  0.3191  1.0494  0.9407
21121SOL     OW64803   0.931   7.258   8.300 -0.2283  0.5460 -0.0469
21121SOL    HW164804   0.845   7.266   8.342 -0.8850  0.4479 -1.3120
21121SOL    HW264805   0.956   7.167   8.314 -1.4568 -0.0921 -1.6773
21122SOL     OW64806   1.400   5.877   5.182  0.0936 -0.6283  0.1050
21122SOL    HW164807   1.480   5.926   5.164 -0.7968  0.5965 -0.7127
21122SOL    HW264808   1.429   5.786   5.190  1.6495 -0.1298  0.5309
21123SOL     OW64809   2.729   4.050   8.091  0.4534 -0.0253  0.4598
21123SOL    HW164810   2.637   4.056   8.115  0.5083  0.4413  0.5583
21123SOL    HW264811   2.729   4.049   7.995  0.4063  1.1257  0.4348
21124SOL     OW64812   7.687   4.279   7.874  0.0116  0.1453  0.1966
21124SOL    HW164813   7.661   4.232   7.795 -0.2984 -1.7194  1.3477
21124SOL    HW264814   7.760   4.334   7.847  0.2187 -0.8158 -1.2740
21125SOL     OW64815   1.743   4.708   8.008  0.1136  0.6245 -0.6107
21125SOL    HW164816   1.686   4.646   8.054  2.2398  0.0027  1.3485
21125SOL    HW264817   1.820   4.656   7.983  0.9065  1.9574 -1.0309
21126SOL     OW64818   1.410   3.165   3.004  0.0465 -0.2716 -0.3335
21126SOL    HW164819   1.323   3.128   2.986 -1.0544  1.7446  0.5144
21126SOL    HW264820   1.404   3.197   3.094  1.2734  0.9852 -0.6720
21127SOL     OW64821   2.511   4.444   8.822  0.7023 -0.2199 -0.4902
21127SOL    HW164822   2.510   4.383   8.896  0.8243  0.8109  0.3916
21127SOL    HW264823   2.470   4.523   8.856  0.9009  0.3283 -1.4938
21128SOL     OW64824   6.822   4.745   7.691 -0.6545  0.2208 -0.0640
21128SOL    HW164825   6.780   4.663   7.720 -0.4060 -0.9852 -2.7743
21128SOL    HW264826   6.855   4.725   7.603  4.4745  1.4469  1.2176
21129SOL     OW64827   6.292   6.010   1.791  0.3823 -0.0435 -0.8465
21129SOL    HW164828   6.360   5.964   1.841  1.6266 -0.1225 -2.5372
21129SOL    HW264829   6.240   6.054   1.858  1.2374 -1.1067  0.6027
21130SOL     OW64830   2.453   4.251   6.357  0.0870 -0.1068 -0.0486
21130SOL    HW164831   2.521   4.318   6.349  1.2028 -1.0015  1.6032
21130SOL    HW264832   2.389   4.289   6.418  0.6276 -0.4564  0.7443
21131SOL     OW64833   3.440   0.553   8.964 -0.4840 -0.5676  0.3089
21131SOL    HW164834   3.408   0.643   8.976 -1.7384 -0.7577 -1.2331
21131SOL    HW264835   3.535   0.561   8.967 -0.5882  0.5605  1.7383
21132SOL     OW64836   5.464   4.248   1.271 -0.7441 -0.1648 -0.1194
21132SOL    HW164837   5.451   4.158   1.303  1.1926 -0.4282  0.0529
21132SOL    HW264838   5.468   4.240   1.176  0.9430 -0.5238 -0.0433
21133SOL     OW64839   7.733   7.614   1.387  0.2090  0.2491  0.0285
21133SOL    HW164840   7.828   7.605   1.384  0.4102  1.0839  2.0784
21133SOL    HW264841   7.701   7.556   1.318  2.2614  1.5461 -2.1643
21134SOL     OW64842   0.022   5.440  11.736 -0.1181 -0.0695 -0.0854
21134SOL    HW164843   0.107   5.481  11.752 -0.3380  0.9428 -1.4018
21134SOL    HW264844  -0.042   5.500  11.773 -0.3335 -0.1921 -0.2509
21135SOL     OW64845   1.004   2.449   5.001  0.0767  0.0078  0.2559
21135SOL    HW164846   0.911   2.467   5.018 -0.1355 -0.7422 -0.0999
21135SOL    HW264847   1.045   2.457   5.087 -0.1714  1.1367  0.2974
21136SOL     OW64848   4.736   1.963   5.641  0.3600 -0.2843  0.0005
21136SOL    HW164849   4.705   1.873   5.632  1.2681 -0.6893  0.7408
21136SOL    HW264850   4.720   2.003   5.556  1.4490 -1.6305 -0.8738
21137SOL     OW64851   1.464   0.480   1.415  0.2812 -0.1756 -0.7748
21137SOL    HW164852   1.542   0.426   1.430  0.1163 -0.4076 -0.7363
21137SOL    HW264853   1.442   0.514   1.501  0.2232 -0.2753 -0.7492
21138SOL     OW64854   1.851   6.733   0.017 -0.0926 -0.0126  0.0464
21138SOL    HW164855   1.870   6.771  -0.069  1.8654  0.3687  0.5952
21138SOL    HW264856   1.879   6.641   0.009 -0.6128 -0.1734  0.0593
21139SOL     OW64857   4.617   7.142   9.755  0.0779  0.4185  0.5746
21139SOL    HW164858   4.650   7.129   9.666 -0.4083  0.4415  0.3841
21139SOL    HW264859   4.584   7.056   9.781 -0.9298  0.6887  0.2440
21140SOL     OW64860   7.144   7.056   7.012 -0.1051 -1.0733  0.1238
21140SOL    HW164861   7.202   6.997   6.964  1.3312  0.5390 -0.2236
21140SOL    HW264862   7.132   7.131   6.954  0.0114  0.0085  1.4471
21141SOL     OW64863   4.438   2.930   3.608  0.0350  0.1443 -0.0309
21141SOL    HW164864   4.513   2.882   3.643  0.2202 -0.2472 -0.9258
21141SOL    HW264865   4.374   2.862   3.587 -0.4965  0.4617  0.5489
21142SOL     OW64866   5.167   6.489   0.012  0.2743  0.7422  0.2911
21142SOL    HW164867   5.159   6.584   0.011  1.4649  0.8611 -0.4334
21142SOL    HW264868   5.090   6.458  -0.037 -0.1289  1.3250  0.5462
21143SOL     OW64869   6.461   2.592   0.219  0.1714 -0.0101 -0.3725
21143SOL    HW164870   6.546   2.555   0.243 -0.7953 -2.2992 -0.2234
21143SOL    HW264871   6.436   2.646   0.294  1.0377 -0.1377  0.0118
21144SOL     OW64872   7.713   0.823   4.610  0.1818  0.1144 -0.5941
21144SOL    HW164873   7.666   0.834   4.527 -3.8033 -1.4928  1.1911
21144SOL    HW264874   7.699   0.906   4.656  1.0779  0.4457 -0.9019
21145SOL     OW64875   3.567   6.801   5.402 -0.3397 -0.0602  0.0183
21145SOL    HW164876   3.559   6.856   5.324 -0.4390 -1.1678 -0.7738
21145SOL    HW264877   3.560   6.863   5.475  0.7933  1.1489 -0.8275
21146SOL     OW64878   0.244   1.343  10.096 -0.0402 -0.1161  0.2431
21146SOL    HW164879   0.215   1.258  10.128 -0.4399  0.3408  1.1268
21146SOL    HW264880   0.292   1.381  10.169  0.2406  0.3693 -0.1875
21147SOL     OW64881   6.033   6.129   4.641 -0.2179  0.0708 -0.5816
21147SOL    HW164882   6.049   6.159   4.731  1.9698  0.4295 -1.0208
21147SOL    HW264883   5.943   6.154   4.623 -0.9303 -0.5790  1.7144
21148SOL     OW64884   6.974   4.139   6.913 -0.2574 -0.4605 -0.1031
21148SOL    HW164885   6.880   4.135   6.927 -0.2011 -0.6892  0.2342
21148SOL    HW264886   7.010   4.072   6.971  0.1962  0.3406  0.5546
21149SOL     OW64887   2.611   7.027   8.227 -0.2464  0.3335  0.2589
21149SOL    HW164888   2.600   6.947   8.278 -0.4114  1.0247  1.3244
21149SOL    HW264889   2.561   7.011   8.147  1.1805 -1.3254 -0.3729
21150SOL     OW64890   3.744   2.710   3.911  0.3912 -0.1080  0.2475
21150SOL    HW164891   3.750   2.627   3.864  1.3218  0.2696 -0.3280
21150SOL    HW264892   3.803   2.701   3.985  2.0845  0.7380 -0.9418
21151SOL     OW64893   3.740   7.402   0.180 -0.0148  0.4880 -0.1309
21151SOL    HW164894   3.651   7.412   0.147  0.1226 -0.8671 -1.0250
21151SOL    HW264895   3.740   7.315   0.221  0.4636  1.1663  1.3377
21152SOL     OW64896   4.047   2.158   4.518  0.4805  0.9623  0.0339
21152SOL    HW164897   4.007   2.190   4.437  0.7673  2.0220  0.2832
21152SOL    HW264898   4.012   2.070   4.530  1.9354 -0.0279 -2.2651
21153SOL     OW64899   2.241   7.279   3.310 -0.2309  1.2766 -0.2360
21153SOL    HW164900   2.291   7.208   3.350  1.1932  1.6684 -1.2474
21153SOL    HW264901   2.187   7.236   3.244  0.6692  1.0999 -0.8860
21154SOL     OW64902   7.328   3.794   9.288  0.6684 -0.0801  0.5426
21154SOL    HW164903   7.384   3.716   9.297 -0.0422 -0.4978  1.5066
21154SOL    HW264904   7.371   3.846   9.220  3.5833  0.7458  2.7941
21155SOL     OW64905   3.753   1.231  11.042 -0.0378 -0.0673  0.1851
21155SOL    HW164906   3.772   1.228  10.948 -0.8760  0.0779  0.0011
21155SOL    HW264907   3.701   1.310  11.053  0.9146  0.4788  0.9514
21156SOL     OW64908   7.550   5.455   1.064  0.2952 -0.3672 -0.3136
21156SOL    HW164909   7.594   5.537   1.085 -0.6764  0.1105 -0.0532
21156SOL    HW264910   7.584   5.392   1.127 -1.5659  0.7120  1.9379
21157SOL     OW64911   6.097   6.458   0.156  0.1766  0.3356  0.3374
21157SOL    HW164912   6.007   6.435   0.135 -0.3623  0.6751  2.1445
21157SOL    HW264913   6.105   6.441   0.250  1.5136  1.8211  0.5370
21158SOL     OW64914   4.336   5.275  10.529 -0.2192  0.1628 -0.2929
21158SOL    HW164915   4.256   5.298  10.576 -0.7446 -2.9042  0.5097
21158SOL    HW264916   4.406   5.282  10.594 -0.3779 -0.5282 -0.0478
21159SOL     OW64917   5.978   2.999   0.343 -0.0863 -0.2364 -0.0070
21159SOL    HW164918   5.911   2.966   0.403 -0.5062 -0.4838 -0.6087
21159SOL    HW264919   5.932   3.066   0.291 -0.2824 -1.4350 -1.4312
21160SOL     OW64920   4.736   7.102   9.345 -0.2518  0.4460  0.4371
21160SOL    HW164921   4.644   7.079   9.338 -0.5271  0.8993  2.1561
21160SOL    HW264922   4.756   7.147   9.262 -1.0508 -1.2537 -0.7315
21161SOL     OW64923   4.082   4.897   4.876  0.2523  0.7061  0.0080
21161SOL    HW164924   3.998   4.900   4.920 -1.5892 -1.0546 -3.0428
21161SOL    HW264925   4.110   4.806   4.883  1.5944  1.1246  0.3983
21162SOL     OW64926   4.565   7.208  10.971  0.2971  0.4727 -0.2012
21162SOL    HW164927   4.501   7.250  11.027  1.0722 -0.4389  1.4552
21162SOL    HW264928   4.548   7.243  10.884 -2.6993 -0.0499  0.0717
21163SOL     OW64929   0.592   2.992   2.493 -0.4801 -0.3973 -0.3502
21163SOL    HW164930   0.667   2.983   2.552 -1.0734 -0.1803  0.4543
21163SOL    HW264931   0.607   2.926   2.425  1.1152  0.5388 -0.9515
21164SOL     OW64932   2.383   2.183   2.428  0.4565 -0.6261 -0.2674
21164SOL    HW164933   2.297   2.157   2.395 -0.4786 -0.3435  1.7783
21164SOL    HW264934   2.431   2.100   2.439 -0.7550 -1.1286  1.6185
21165SOL     OW64935   2.948   2.098   3.168  0.5078  0.0007  0.0322
21165SOL    HW164936   2.980   2.187   3.152 -0.1805  0.5451  1.4921
21165SOL    HW264937   2.879   2.085   3.103  0.3506  0.6881  0.0501
21166SOL     OW64938   5.166   6.346   1.206 -0.0689 -0.0343 -0.3759
21166SOL    HW164939   5.182   6.440   1.192  0.9833 -0.1340  0.0664
21166SOL    HW264940   5.159   6.310   1.117  0.7173  0.2759 -0.5708
21167SOL     OW64941   0.076   2.517   6.219 -0.4328  0.1620 -0.1717
21167SOL    HW164942   0.115   2.546   6.137  0.1255 -0.7882 -0.2546
21167SOL    HW264943   0.012   2.450   6.193 -0.0866 -0.3113  0.1859
21168SOL     OW64944   5.712   1.351  12.208  0.4551 -0.2202 -0.3157
21168SOL    HW164945   5.688   1.331  12.299  1.2360  0.2316  0.0074
21168SOL    HW264946   5.715   1.266  12.165  0.6322 -0.4961  0.2300
21169SOL     OW64947   3.216   7.853  12.323  0.9709 -0.7727 -0.0836
21169SOL    HW164948   3.229   7.759  12.339 -0.9398 -0.8961  1.1327
21169SOL    HW264949   3.145   7.856  12.258  0.1300 -0.2042  0.8329
21170SOL     OW64950   3.194   7.233  11.411  0.4497 -0.0368 -0.2590
21170SOL    HW164951   3.141   7.154  11.400 -0.5376  0.5361  0.2705
21170SOL    HW264952   3.183   7.257  11.503  0.4238  0.9312 -0.5058
21171SOL     OW64953   5.232   5.429   1.152  0.0182  0.0636  0.4012
21171SOL    HW164954   5.268   5.344   1.126 -0.7967  0.3905 -2.0525
21171SOL    HW264955   5.309   5.484   1.165  0.5411 -0.8857  1.5477
21172SOL     OW64956   7.667   3.037   0.900 -0.3431 -0.1494  0.7380
21172SOL    HW164957   7.714   3.046   0.817  1.7474  0.0348  1.8633
21172SOL    HW264958   7.636   3.125   0.921 -0.5418 -0.1248  0.3440
21173SOL     OW64959   2.322   3.514   5.718  0.0919 -0.6407 -0.3380
21173SOL    HW164960   2.298   3.476   5.634  1.5108 -2.1060 -0.1274
21173SOL    HW264961   2.412   3.545   5.706 -0.5299  1.4110 -0.0623
21174SOL     OW64962   5.562   1.645   1.220 -0.2491 -0.0360 -0.3048
21174SOL    HW164963   5.552   1.677   1.309  3.5581 -0.2727  0.3909
21174SOL    HW264964   5.516   1.709   1.166  0.8127  2.4568  1.5574
21175SOL     OW64965   0.638   4.414  11.163  0.1886 -0.2276 -0.1593
21175SOL    HW164966   0.701   4.470  11.119 -0.3269  0.1747 -0.3879
21175SOL    HW264967   0.661   4.420  11.256  0.5314 -0.1482 -0.2491
21176SOL     OW64968   2.490   0.180   6.747  0.1849  0.0606  0.4700
21176SOL    HW164969   2.489   0.089   6.778 -2.2229  0.3181  1.3473
21176SOL    HW264970   2.431   0.180   6.672  0.5640  0.8036  0.1678
21177SOL     OW64971   7.927   3.208   8.750 -0.4543  0.0579 -0.5309
21177SOL    HW164972   7.976   3.126   8.745 -3.7789 -2.0808 -1.2133
21177SOL    HW264973   7.926   3.230   8.843  1.2495 -0.0712 -0.4404
21178SOL     OW64974   4.822   6.281  11.406  0.0036  0.4966  0.1535
21178SOL    HW164975   4.909   6.317  11.388  0.6565 -1.3166 -0.5243
21178SOL    HW264976   4.771   6.300  11.327  1.1760 -2.3866 -1.4324
21179SOL     OW64977   1.778   7.557   9.961 -0.7224  0.0752 -0.4630
21179SOL    HW164978   1.693   7.518   9.982 -1.3837  0.9231 -1.5120
21179SOL    HW264979   1.807   7.509   9.883 -1.3251  1.3205 -1.4815
21180SOL     OW64980   6.928   5.345   8.936  0.3040  0.1896 -0.2308
21180SOL    HW164981   7.020   5.362   8.914  0.2322 -1.3239 -1.9546
21180SOL    HW264982   6.924   5.353   9.031  2.3105 -0.0834 -0.0822
21181SOL     OW64983   7.904   5.045   6.149 -0.1118 -0.4116 -0.3865
21181SOL    HW164984   7.943   5.079   6.069  1.0377 -1.1662 -0.1639
21181SOL    HW264985   7.890   5.123   6.203  0.3603 -0.0396 -0.7900
21182SOL     OW64986   6.776   3.012   2.779 -0.1558  0.2000 -0.5212
21182SOL    HW164987   6.744   2.922   2.781 -4.2214  1.3889  2.3505
21182SOL    HW264988   6.750   3.045   2.693 -1.4635 -0.5766 -0.4583
21183SOL     OW64989   3.760   2.913   2.194 -0.0421 -0.8130 -0.0343
21183SOL    HW164990   3.758   2.828   2.149 -3.6440 -0.5274 -0.7117
21183SOL    HW264991   3.725   2.895   2.281 -3.1920  0.2157 -0.9637
21184SOL     OW64992   2.229   3.215  11.470 -0.2213 -0.6643 -0.4367
21184SOL    HW164993   2.242   3.226  11.564  0.3620 -3.7006 -0.0442
21184SOL    HW264994   2.134   3.211  11.459 -0.2951 -0.0873 -0.0107
21185SOL     OW64995   1.962   4.323   6.590  0.4541  0.0297 -0.1725
21185SOL    HW164996   1.981   4.402   6.640  0.1462 -0.0979  0.1510
21185SOL    HW264997   1.882   4.288   6.630  0.0979  0.0268 -0.8676
21186SOL     OW64998   7.130   4.244   2.964  0.5667  0.3705  0.3042
21186SOL    HW164999   7.116   4.329   3.005 -0.6837 -0.2174  1.1324
21186SOL    HW265000   7.089   4.181   3.023  1.3220 -0.8034 -0.3798
21187SOL     OW65001   3.446   2.160   2.306  0.2492 -0.1597 -0.0410
21187SOL    HW165002   3.437   2.248   2.343  1.1780 -0.0391 -0.0948
21187SOL    HW265003   3.497   2.111   2.370  0.7590 -0.3186 -0.5657
21188SOL     OW65004   1.135   6.767   5.222 -0.0872  0.0040  0.2570
21188SOL    HW165005   1.175   6.815   5.294 -0.7575 -0.0653  0.6845
21188SOL    HW265006   1.135   6.829   5.149 -3.5990  1.7948  1.5667
21189SOL     OW65007   1.761   3.245   3.953  0.5860 -0.0566  0.2500
21189SOL    HW165008   1.800   3.170   3.908  1.9914  0.7286  0.0981
21189SOL    HW265009   1.808   3.250   4.037  0.7331  0.8313  0.1276
21190SOL     OW65010   2.697   3.062  10.105  0.2406 -0.2762 -0.5984
21190SOL    HW165011   2.749   3.107  10.039 -1.3254  0.6025 -1.2891
21190SOL    HW265012   2.709   3.113  10.185 -0.7806  0.8616 -1.1486
21191SOL     OW65013   3.596   2.349  10.417 -0.2132 -0.0683 -0.5769
21191SOL    HW165014   3.673   2.350  10.474  0.9996  0.7366 -2.1667
21191SOL    HW265015   3.557   2.436  10.428  0.4635  0.3656 -1.5261
21192SOL     OW65016   5.132   1.273   7.930 -0.6728 -0.6242 -0.0038
21192SOL    HW165017   5.219   1.294   7.964 -1.7205 -0.2733  2.7707
21192SOL    HW265018   5.104   1.197   7.982 -2.4319 -0.0396 -0.0288
21193SOL     OW65019   1.417   2.131   2.731 -0.1977  0.1179  0.0705
21193SOL    HW165020   1.423   2.223   2.703  0.4298  0.5813  1.6331
21193SOL    HW265021   1.342   2.129   2.790 -1.5249 -0.8576 -1.5382
21194SOL     OW65022   6.432   6.110   8.065  0.2126 -0.3760  0.1729
21194SOL    HW165023   6.367   6.077   8.127  1.3515  1.4943  2.4990
21194SOL    HW265024   6.381   6.127   7.985 -1.4854 -1.9463  0.8228
21195SOL     OW65025   7.688   5.507  11.249 -0.1450  0.1785 -0.5062
21195SOL    HW165026   7.608   5.514  11.197 -0.1553 -0.5419 -0.5949
21195SOL    HW265027   7.748   5.570  11.210 -0.6195  0.6241 -0.5270
21196SOL     OW65028   7.273   3.051   9.872  0.1224 -0.0247  0.2188
21196SOL    HW165029   7.365   3.046   9.895 -0.0429 -0.3794  0.8124
21196SOL    HW265030   7.270   3.031   9.778  0.7233  0.7561  0.0229
21197SOL     OW65031   5.394   4.877   9.743 -0.1393 -0.0120 -0.2445
21197SOL    HW165032   5.337   4.809   9.707  0.9063 -1.9056  1.4804
21197SOL    HW265033   5.409   4.936   9.670 -0.9931 -1.7065 -1.8813
21198SOL     OW65034   3.340   1.831   5.274  0.3812  0.0556  0.3138
21198SOL    HW165035   3.411   1.830   5.338  1.3651 -3.9166 -0.5237
21198SOL    HW265036   3.265   1.794   5.320  0.0606  0.4213  0.0934
21199SOL     OW65037   7.939   1.492   3.500  0.0304  0.0026 -0.5520
21199SOL    HW165038   7.981   1.460   3.579  1.1037  1.2073 -0.5910
21199SOL    HW265039   7.944   1.588   3.507 -3.1278  0.2721 -0.3643
21200SOL     OW65040   7.262   1.752   5.655 -0.1016  0.3959 -0.7074
21200SOL    HW165041   7.290   1.808   5.726  0.8424 -0.8618 -0.0547
21200SOL    HW265042   7.336   1.751   5.594  0.1096 -0.5424 -0.4516
21201SOL     OW65043   5.752   3.843   2.898 -0.0808 -0.0656 -0.5346
21201SOL    HW165044   5.718   3.753   2.896  0.7547 -0.3808 -0.8135
21201SOL    HW265045   5.808   3.850   2.821  0.6985  0.3603  0.0617
21202SOL     OW65046   2.149   1.985   9.086  0.4578 -0.0304  0.1442
21202SOL    HW165047   2.192   2.028   9.013  1.3944  1.8882  1.7310
21202SOL    HW265048   2.219   1.961   9.146 -0.3919 -0.1967  1.1131
21203SOL     OW65049   1.488   2.608   9.458 -0.3849 -0.3015  0.4528
21203SOL    HW165050   1.563   2.581   9.404 -0.5274  0.3870 -0.1008
21203SOL    HW265051   1.519   2.600   9.548  0.3711  0.0127  0.2278
21204SOL     OW65052   6.456   1.375   9.229  0.1072  0.0096  0.1705
21204SOL    HW165053   6.392   1.403   9.163  0.7999  1.7214  0.1847
21204SOL    HW265054   6.437   1.282   9.242  0.2143 -0.5186 -2.7569
21205SOL     OW65055   4.384   3.215   9.815  1.2989 -0.4836 -0.3047
21205SOL    HW165056   4.405   3.144   9.754  3.7499 -0.2988  0.2130
21205SOL    HW265057   4.407   3.180   9.901 -0.0248  0.0367  0.2833
21206SOL     OW65058   0.122   0.627   3.601  0.0199  0.2234  0.1314
21206SOL    HW165059   0.215   0.631   3.621 -0.5356  1.2864  3.0106
21206SOL    HW265060   0.115   0.563   3.530  2.8630 -0.2476  0.1631
21207SOL     OW65061   7.470   6.148   2.537  0.2504  1.1937 -0.2977
21207SOL    HW165062   7.437   6.197   2.462  0.5080  1.8274 -0.0026
21207SOL    HW265063   7.420   6.181   2.612  0.8166  1.4033 -0.0107
21208SOL     OW65064   6.325   1.365   0.394  0.5564  0.5654  0.1850
21208SOL    HW165065   6.389   1.300   0.366  0.4430  1.4998 -2.5851
21208SOL    HW265066   6.241   1.330   0.365  0.3851  1.4435 -0.4248
21209SOL     OW65067   1.944   5.100   1.780  0.2744  0.3146  0.0379
21209SOL    HW165068   1.888   5.176   1.797  0.0436  0.0831  0.3390
21209SOL    HW265069   2.003   5.128   1.710  0.5746  0.9600  0.5384
21210SOL     OW65070   6.134   1.826  10.393  0.2478 -0.5184 -0.2220
21210SOL    HW165071   6.101   1.751  10.442  1.4611 -0.3195  0.9858
21210SOL    HW265072   6.211   1.792  10.346  1.1301  0.0516  0.7622
21211SOL     OW65073   6.872   7.930   0.869  0.3580 -0.3683 -0.5408
21211SOL    HW165074   6.798   7.895   0.919 -0.1921  0.0309 -1.0529
21211SOL    HW265075   6.899   7.858   0.813  1.6721 -1.1815  1.0364
21212SOL     OW65076   2.438   1.027   3.078 -0.2821 -0.1778 -0.4895
21212SOL    HW165077   2.506   1.090   3.099 -1.0157 -0.3535  2.8819
21212SOL    HW265078   2.365   1.049   3.136 -0.6680 -3.9325  0.7516
21213SOL     OW65079   2.958   5.621   3.889 -0.2019 -0.6073  0.1442
21213SOL    HW165080   2.989   5.588   3.805 -1.6844 -0.5489 -0.4450
21213SOL    HW265081   2.945   5.543   3.943  0.4041 -0.6695  0.2030
21214SOL     OW65082   2.879   5.577   6.429 -0.0729 -0.1836 -0.1635
21214SOL    HW165083   2.935   5.614   6.360  1.0805 -0.2384  0.7079
21214SOL    HW265084   2.868   5.485   6.404 -1.0815  0.1774 -1.1480
21215SOL     OW65085   3.550   4.703   3.222  0.0050  0.4714 -0.4953
21215SOL    HW165086   3.491   4.749   3.283 -0.2186 -0.5905  0.1162
21215SOL    HW265087   3.550   4.613   3.253  2.8008  0.6149  0.1689
21216SOL     OW65088   0.612   4.438   3.872  0.1572 -0.3712  0.3286
21216SOL    HW165089   0.599   4.346   3.849  0.1160 -0.6106  1.2767
21216SOL    HW265090   0.692   4.463   3.826  0.9895 -1.3118  1.2205
21217SOL     OW65091   1.785   0.130   0.503  0.6173 -0.0356 -0.6879
21217SOL    HW165092   1.848   0.195   0.535  0.1834  0.0678 -0.0167
21217SOL    HW265093   1.801   0.053   0.557 -0.9131  0.5215  0.6636
21218SOL     OW65094   3.464   6.566   9.491 -0.5179 -0.1598  0.0368
21218SOL    HW165095   3.486   6.492   9.434 -0.7695  0.5436 -0.9887
21218SOL    HW265096   3.390   6.534   9.543  0.2002 -1.0699  0.5264
21219SOL     OW65097   1.927   7.592   7.940 -0.2122 -0.1500  0.5737
21219SOL    HW165098   1.877   7.604   7.859 -0.8241 -0.2656  0.9310
21219SOL    HW265099   1.990   7.664   7.940 -0.5567  0.1563  0.2520
21220SOL     OW65100   1.132   1.023   2.821 -0.0851 -0.1710  0.1361
21220SOL    HW165101   1.222   1.032   2.789 -0.3111  0.1734 -0.4248
21220SOL    HW265102   1.122   0.930   2.841  0.4709 -0.1690  0.4351
21221SOL     OW65103   3.899   2.863   1.553 -0.4137  0.2935 -0.2722
21221SOL    HW165104   3.968   2.899   1.497  1.1655 -0.2886  1.2301
21221SOL    HW265105   3.851   2.803   1.495  0.3312  0.7133 -1.3595
21222SOL     OW65106   0.409   3.840   1.454 -0.2181  0.3979  0.8557
21222SOL    HW165107   0.367   3.909   1.505  0.0630  0.4493  1.0207
21222SOL    HW265108   0.486   3.881   1.417 -0.8416  0.5777 -0.2700
21223SOL     OW65109   4.935   6.823   1.333 -0.0716 -0.0829  0.1095
21223SOL    HW165110   5.021   6.864   1.345 -0.3042  0.8032 -1.0990
21223SOL    HW265111   4.944   6.736   1.374  1.2767  0.1314  0.3121
21224SOL     OW65112   3.385   2.862   8.419  0.6477  1.0235 -0.1206
21224SOL    HW165113   3.326   2.926   8.378  0.0787  0.0243 -0.9069
21224SOL    HW265114   3.424   2.815   8.345 -0.2830 -0.7150  0.4446
21225SOL     OW65115   4.282   2.581   0.782  0.4575 -0.2929 -0.1817
21225SOL    HW165116   4.365   2.539   0.805  0.8916  1.2948  1.3464
21225SOL    HW265117   4.225   2.563   0.856  0.0520  0.2398 -0.3571
21226SOL     OW65118   2.508   2.477   7.399  0.2300 -0.0701 -0.4007
21226SOL    HW165119   2.563   2.421   7.453  0.0884  0.5931  0.4577
21226SOL    HW265120   2.453   2.524   7.462 -0.1275  0.5207 -1.1403
21227SOL     OW65121   7.263   1.829   8.922  0.0080 -0.0910  0.3280
21227SOL    HW165122   7.183   1.804   8.876  0.5488 -2.1333  0.3646
21227SOL    HW265123   7.237   1.900   8.981 -1.5923 -0.1986 -0.2127
21228SOL     OW65124   2.965   1.601   9.227 -0.3967  0.7675  0.3848
21228SOL    HW165125   3.029   1.535   9.251 -0.1344  0.8026 -0.2045
21228SOL    HW265126   3.004   1.684   9.256  0.3476  0.9129 -0.9757
21229SOL     OW65127   2.138   6.082  12.357 -0.0269  0.6612  0.3046
21229SOL    HW165128   2.099   6.095  12.444 -1.2765 -2.6334  0.3904
21229SOL    HW265129   2.065   6.058  12.301  0.8076  2.4140 -1.6719
21230SOL     OW65130   6.247   5.068   0.842  0.1881 -0.3105 -0.1295
21230SOL    HW165131   6.222   5.045   0.931 -1.8280  2.0365  0.0098
21230SOL    HW265132   6.335   5.031   0.831 -0.1464 -2.0198  2.2293
21231SOL     OW65133   0.156   6.542   2.279 -0.2362  0.2254  0.1636
21231SOL    HW165134   0.179   6.537   2.187 -1.0200  0.5221 -0.0598
21231SOL    HW265135   0.238   6.563   2.324  0.5565 -1.7887 -0.2297
21232SOL     OW65136   0.055   0.262   6.881  0.6132 -0.3622  0.2182
21232SOL    HW165137   0.151   0.256   6.885  0.6410  0.6215  2.2706
21232SOL    HW265138   0.037   0.355   6.876 -0.2335 -0.4691  0.9897
21233SOL     OW65139   6.669   3.558  10.496 -0.1461 -0.4185  0.1786
21233SOL    HW165140   6.684   3.618  10.423  0.2027 -0.0321  0.5628
21233SOL    HW265141   6.736   3.491  10.486  0.4501  0.1016  0.6285
21234SOL     OW65142   7.864   7.117   8.082  0.1170 -0.0929 -0.3713
21234SOL    HW165143   7.933   7.172   8.045  0.4687 -0.8860 -0.9137
21234SOL    HW265144   7.891   7.028   8.062 -1.5045 -0.3962 -1.4080
21235SOL     OW65145   3.250   3.986   3.631  0.0489  0.5433  0.0257
21235SOL    HW165146   3.161   3.957   3.611  0.0140  0.5917  0.1165
21235SOL    HW265147   3.240   4.072   3.670 -0.1032 -0.7154  3.0182
21236SOL     OW65148   6.435   0.376   9.817 -0.6239 -0.5008 -0.2330
21236SOL    HW165149   6.484   0.375   9.899  0.8441 -0.2469 -1.0762
21236SOL    HW265150   6.487   0.322   9.758 -1.2064  0.0260 -1.2499
21237SOL     OW65151   5.828   6.209   2.968 -0.0451 -0.1981  0.6284
21237SOL    HW165152   5.884   6.224   2.892  0.5500 -0.2096  1.0537
21237SOL    HW265153   5.864   6.131   3.010 -2.0534 -1.8939 -0.5893
21238SOL     OW65154   7.050   5.847   9.645 -0.6332 -0.7087 -0.3222
21238SOL    HW165155   7.014   5.771   9.599 -0.8519 -1.3006  0.7860
21238SOL    HW265156   7.031   5.830   9.737  0.7785 -0.1089  0.1082
21239SOL     OW65157   1.446   5.297   9.540 -0.7866 -0.7401 -0.2380
21239SOL    HW165158   1.410   5.214   9.572 -0.0667 -0.4858  1.3118
21239SOL    HW265159   1.531   5.304   9.582 -0.1869  0.1003 -1.5114
21240SOL     OW65160   7.014   1.737   1.694  0.0283 -0.2172  0.2145
21240SOL    HW165161   7.034   1.666   1.633  0.5636  0.2666 -0.1864
21240SOL    HW265162   6.925   1.763   1.672  0.0751 -0.3132 -0.0943
21241SOL     OW65163   7.244   2.045   6.691  0.2521 -0.2608 -0.1351
21241SOL    HW165164   7.256   1.956   6.659 -0.7344  0.0762 -1.5294
21241SOL    HW265165   7.264   2.101   6.615 -2.2153  0.5727 -0.2607
21242SOL     OW65166   2.437   6.709   7.208  0.1021  0.1960  0.1551
21242SOL    HW165167   2.489   6.782   7.241  1.8848 -1.1872  0.5928
21242SOL    HW265168   2.440   6.644   7.279 -1.0114 -0.5011 -0.4161
21243SOL     OW65169   5.293   3.747  10.386  0.1899 -0.0172  1.1542
21243SOL    HW165170   5.379   3.782  10.410  0.6568  1.4642 -2.1000
21243SOL    HW265171   5.241   3.824  10.363 -1.0636 -1.0592  0.3169
21244SOL     OW65172   1.980   0.243  11.414 -0.2882  0.0639  0.3705
21244SOL    HW165173   1.963   0.192  11.493 -0.8011 -0.7232 -0.2366
21244SOL    HW265174   2.076   0.242  11.407 -0.2373  0.0977  0.9463
21245SOL     OW65175   4.339   5.901   5.901 -0.2674  0.2100 -0.6386
21245SOL    HW165176   4.300   5.821   5.867  0.4021 -0.2872 -0.2438
21245SOL    HW265177   4.360   5.952   5.823  0.9354 -0.7725 -0.9841
21246SOL     OW65178   2.590   7.023   3.244  0.0329  0.3026  0.9491
21246SOL    HW165179   2.587   7.041   3.150  0.2005 -0.6284  0.7571
21246SOL    HW265180   2.523   6.956   3.258  0.2060  0.2257  1.4421
21247SOL     OW65181   0.791   3.082  11.054 -0.0158  0.1577  0.3172
21247SOL    HW165182   0.722   3.035  11.101 -0.2949  0.6204  0.3782
21247SOL    HW265183   0.870   3.068  11.106 -0.5919  1.8282  1.7367
21248SOL     OW65184   5.457   7.422   1.216 -0.0969  0.1989 -0.0930
21248SOL    HW165185   5.552   7.434   1.213  0.2040 -1.9981 -0.6330
21248SOL    HW265186   5.426   7.454   1.132 -0.2847  3.6362  1.1203
21249SOL     OW65187   3.250   7.937   9.563  0.2914  0.3311  0.2571
21249SOL    HW165188   3.167   7.937   9.516  0.5378 -0.3014 -0.1993
21249SOL    HW265189   3.294   7.857   9.534  0.7739  0.3131  1.0000
21250SOL     OW65190   5.592   6.626   5.531  0.2439  0.0328 -0.1604
21250SOL    HW165191   5.577   6.692   5.598 -2.7049 -0.5595 -0.1061
21250SOL    HW265192   5.504   6.598   5.504  1.2665 -0.1140 -3.9685
21251SOL     OW65193   7.145   2.820   0.289  0.0977  0.1697  0.6458
21251SOL    HW165194   7.211   2.796   0.354  1.0021 -1.3110 -0.7622
21251SOL    HW265195   7.178   2.901   0.250  0.0056  0.5695  1.3817
21252SOL     OW65196   2.549   3.633   9.026  0.1273 -0.3238 -0.1189
21252SOL    HW165197   2.536   3.630   9.121  1.8380 -1.4184  0.1200
21252SOL    HW265198   2.644   3.627   9.015  0.2632  2.7824 -1.8172
21253SOL     OW65199   5.713   6.039   6.846 -0.2902  0.6836  0.1309
21253SOL    HW165200   5.802   6.051   6.878 -0.7940  2.1127  1.0954
21253SOL    HW265201   5.700   5.945   6.845  1.6735  0.3534 -1.3431
21254SOL     OW65202   3.320   1.348   5.381 -0.0723  0.6096  0.3228
21254SOL    HW165203   3.355   1.263   5.351 -0.9492  0.4548 -0.2887
21254SOL    HW265204   3.237   1.358   5.334 -0.3983  1.4115  1.0472
21255SOL     OW65205   4.824   3.058   7.869  0.2211  0.0624  0.0935
21255SOL    HW165206   4.887   3.023   7.931  0.6795  0.3153 -0.2226
21255SOL    HW265207   4.769   2.982   7.845  0.9280 -0.3532 -0.2516
21256SOL     OW65208   2.445   4.921   3.537 -0.1534  0.3108  1.1757
21256SOL    HW165209   2.463   5.003   3.582 -0.3420  0.2810  1.3089
21256SOL    HW265210   2.372   4.941   3.477 -0.4381  0.1574  1.4653
21257SOL     OW65211   7.337   4.296   2.797 -0.1968 -0.3579  0.1642
21257SOL    HW165212   7.318   4.381   2.760 -1.2324  0.2912  2.0709
21257SOL    HW265213   7.274   4.285   2.868  0.0935 -2.5918  0.1653
21258SOL     OW65214   3.742   1.373   5.360 -0.6844 -0.1361 -0.0330
21258SOL    HW165215   3.789   1.330   5.431 -1.6100  0.0061  0.6967
21258SOL    HW265216   3.718   1.302   5.301  2.7851  0.0598 -1.9397
21259SOL     OW65217   7.059   3.258   7.701  0.4593 -0.4825 -0.4639
21259SOL    HW165218   7.008   3.180   7.723  0.4208 -0.1842  0.5422
21259SOL    HW265219   7.149   3.227   7.690  0.3641 -0.7345 -0.5235
21260SOL     OW65220   5.074   1.900   2.984  0.0993  0.5430 -0.1725
21260SOL    HW165221   5.139   1.937   3.043  0.2786  1.3089 -0.8233
21260SOL    HW265222   4.994   1.893   3.036  0.8913 -1.2067  0.8808
21261SOL     OW65223   3.544   6.758   0.761  0.4336  0.3241 -0.1277
21261SOL    HW165224   3.484   6.827   0.732 -2.7836 -1.7472  1.0566
21261SOL    HW265225   3.548   6.697   0.687 -0.8093 -0.6491  0.5709
21262SOL     OW65226   3.426   1.873  11.220 -0.2716  0.1563 -0.0897
21262SOL    HW165227   3.395   1.894  11.308 -0.4561  0.2380 -0.1743
21262SOL    HW265228   3.491   1.803  11.233 -0.5965 -0.1169  0.0770
21263SOL     OW65229   7.735   3.567   0.688  0.2603 -0.3376  0.4768
21263SOL    HW165230   7.663   3.629   0.675  0.4964  0.0772  1.1105
21263SOL    HW265231   7.760   3.541   0.599 -2.4360 -2.5918  0.2246
21264SOL     OW65232   2.022   2.351   2.595 -0.5133 -0.2095 -0.0179
21264SOL    HW165233   2.101   2.358   2.648 -1.8047 -0.3430  1.9946
21264SOL    HW265234   1.970   2.428   2.619 -0.3993  0.7492 -2.4752
21265SOL     OW65235   6.951   3.333  11.017  0.0939 -0.1693 -0.3376
21265SOL    HW165236   6.915   3.386  10.946  1.7065  0.4783 -0.7051
21265SOL    HW265237   6.905   3.364  11.096  1.4803  2.3473 -0.4131
21266SOL     OW65238   5.797   4.786   5.821 -0.1697 -0.2087  0.2098
21266SOL    HW165239   5.761   4.804   5.908 -0.5999 -0.7311  0.1506
21266SOL    HW265240   5.752   4.706   5.794 -0.0867 -0.0095 -0.5245
21267SOL     OW65241   5.464   0.251   6.285  0.5849  0.1950 -0.1762
21267SOL    HW165242   5.470   0.239   6.190  0.0126 -0.6761 -0.1032
21267SOL    HW265243   5.470   0.163   6.322 -0.5964  0.3862  0.5227
21268SOL     OW65244   7.066   7.666   6.551 -0.1931  0.1958 -0.3662
21268SOL    HW165245   7.104   7.754   6.554 -0.6056  0.4593 -1.9546
21268SOL    HW265246   7.041   7.647   6.642 -2.2741  2.6877 -0.2993
21269SOL     OW65247   4.276   0.634   1.356 -0.0291 -0.3776 -0.1185
21269SOL    HW165248   4.265   0.593   1.442 -1.8820  0.2099 -0.0336
21269SOL    HW265249   4.351   0.692   1.365  0.1670 -0.7877  0.9227
21270SOL     OW65250   2.553   2.198   0.252 -0.3696  0.1167  0.1399
21270SOL    HW165251   2.626   2.215   0.192  0.1909 -0.1013  0.7484
21270SOL    HW265252   2.487   2.263   0.229 -0.7301 -0.7779 -1.6242
21271SOL     OW65253   1.350   3.209   8.167 -0.1879 -0.0975 -0.3660
21271SOL    HW165254   1.434   3.192   8.124  2.2222  2.7707  2.7466
21271SOL    HW265255   1.313   3.283   8.119 -0.2422 -0.4103 -0.8160
21272SOL     OW65256   1.680   3.509   3.589 -0.4354 -0.3495  0.4323
21272SOL    HW165257   1.699   3.597   3.557 -0.4514 -0.2509  0.6891
21272SOL    HW265258   1.706   3.511   3.681 -1.6158 -0.2338  0.7743
21273SOL     OW65259   2.061   6.277   0.817 -0.8454  0.1408  0.0435
21273SOL    HW165260   2.046   6.233   0.901  1.7273  0.2453  0.6255
21273SOL    HW265261   2.006   6.229   0.755 -1.9437 -0.6535  1.5623
21274SOL     OW65262   3.806   0.501  10.418 -0.1020 -0.1753  0.1981
21274SOL    HW165263   3.738   0.542  10.365 -1.3226 -1.2931  0.8105
21274SOL    HW265264   3.861   0.454  10.356 -2.2067 -2.4567 -0.0837
21275SOL     OW65265   0.715   5.964   4.667  0.0636 -1.1601 -0.0924
21275SOL    HW165266   0.680   6.036   4.720 -0.1514 -0.3230 -1.3161
21275SOL    HW265267   0.638   5.925   4.625 -0.0382 -3.2577  1.8411
21276SOL     OW65268   3.049   5.223  11.471 -0.0530 -0.1437 -0.5353
21276SOL    HW165269   3.137   5.211  11.506 -0.3943  0.2589  0.4861
21276SOL    HW265270   3.046   5.315  11.444 -0.8027  0.4365  1.3637
21277SOL     OW65271   6.525   2.298   0.521 -0.2562 -0.5754  0.3505
21277SOL    HW165272   6.521   2.312   0.426  0.7337 -0.7039  0.2798
21277SOL    HW265273   6.616   2.276   0.538 -0.2402  0.2453  1.4492
21278SOL     OW65274   6.620   2.319  11.912  0.2951  0.2219  0.1417
21278SOL    HW165275   6.669   2.352  11.837 -0.7663  1.5481 -0.0006
21278SOL    HW265276   6.529   2.337  11.890 -0.3507 -2.4232  0.2702
21279SOL     OW65277   2.504   5.664   0.058  0.4915 -0.0767  0.1162
21279SOL    HW165278   2.469   5.743   0.017  0.3166 -1.5023 -2.6891
21279SOL    HW265279   2.454   5.655   0.140 -1.0489  1.4717 -0.5889
21280SOL     OW65280   0.900   7.565   4.360 -0.2934  0.1737  0.1893
21280SOL    HW165281   0.809   7.563   4.388 -0.5758 -1.9300 -0.7747
21280SOL    HW265282   0.933   7.649   4.394 -2.7153  1.2680  0.0334
21281SOL     OW65283   2.625   3.255   3.237 -0.2145 -0.1869 -0.2962
21281SOL    HW165284   2.595   3.186   3.296 -1.2141  0.3403 -0.1593
21281SOL    HW265285   2.720   3.250   3.241 -0.2577 -0.3909  1.1033
21282SOL     OW65286   6.981   0.768   7.439  0.7829 -0.5948 -0.0800
21282SOL    HW165287   7.056   0.709   7.437  1.9149  0.6738  1.8701
21282SOL    HW265288   6.951   0.766   7.530  0.1165  0.9117 -0.2299
21283SOL     OW65289   2.645   4.890   0.069 -0.3885  0.4736  0.7670
21283SOL    HW165290   2.549   4.886   0.075 -0.5537  0.4852 -1.1163
21283SOL    HW265291   2.665   4.848  -0.015  1.2226  0.9168  0.9002
21284SOL     OW65292   5.448   2.227   6.679  0.0818 -0.1100 -0.2568
21284SOL    HW165293   5.415   2.280   6.752  0.6820  1.8696 -1.3344
21284SOL    HW265294   5.370   2.186   6.641 -0.2949 -0.7542  1.1468
21285SOL     OW65295   0.716   1.801   3.610  0.4965  0.3341  0.7297
21285SOL    HW165296   0.654   1.773   3.543 -1.1687 -0.5094  2.5087
21285SOL    HW265297   0.801   1.800   3.567 -0.3584 -1.3051 -1.0433
21286SOL     OW65298   5.508   4.509   4.121  0.3485  0.1486 -0.2022
21286SOL    HW165299   5.527   4.602   4.111  2.1542 -0.2939 -1.3763
21286SOL    HW265300   5.414   4.505   4.136  0.1809  2.1339 -0.5001
21287SOL     OW65301   4.487   6.699  11.394 -0.3511  0.2594  0.0275
21287SOL    HW165302   4.392   6.699  11.402 -0.3222 -1.8819  0.8458
21287SOL    HW265303   4.511   6.607  11.383  1.5307  0.8668 -1.7207
21288SOL     OW65304   1.496   5.580   1.184  0.8331  0.1605  0.3867
21288SOL    HW165305   1.545   5.561   1.104  0.9714  0.0325  0.5033
21288SOL    HW265306   1.407   5.599   1.153  1.1106  1.0774  0.1114
21289SOL     OW65307   3.305   2.007   4.855  0.5473  0.0361 -0.2387
21289SOL    HW165308   3.250   1.984   4.781 -0.9822 -0.5515  1.0090
21289SOL    HW265309   3.320   1.924   4.901 -0.4587  0.6878  1.3383
21290SOL     OW65310   7.141   5.387   7.343  0.1836 -0.0699 -0.1920
21290SOL    HW165311   7.164   5.404   7.434  0.2648 -1.4627  0.0742
21290SOL    HW265312   7.212   5.332   7.310 -0.4466 -0.5871 -0.7241
21291SOL     OW65313   7.481   7.768   9.890  0.2700  0.3159  0.3149
21291SOL    HW165314   7.433   7.847   9.866  0.2215  0.2404  0.1620
21291SOL    HW265315   7.525   7.791   9.972 -2.8289 -0.7315  2.4177
21292SOL     OW65316   1.311   5.643   5.873 -0.0013  0.2216  0.3018
21292SOL    HW165317   1.382   5.612   5.930  0.8163  1.1786 -0.1486
21292SOL    HW265318   1.242   5.578   5.882  1.3515 -1.3415 -0.0623
21293SOL     OW65319   1.461   3.938   2.771 -0.5354  0.2674  0.8108
21293SOL    HW165320   1.439   3.979   2.855 -1.6874 -0.3268  0.8264
21293SOL    HW265321   1.414   3.990   2.706 -1.0190 -0.2903  0.7111
21294SOL     OW65322   5.133   5.482   0.218  0.1189  0.2525 -0.4770
21294SOL    HW165323   5.158   5.573   0.236 -0.7606  0.6178 -1.0321
21294SOL    HW265324   5.128   5.441   0.304  1.5415  0.4447 -0.2855
21295SOL     OW65325   7.739   2.639   2.602  0.7694 -0.3373 -0.0150
21295SOL    HW165326   7.800   2.569   2.623  1.7374  0.5924  0.3860
21295SOL    HW265327   7.780   2.685   2.528 -0.2648 -0.6948 -0.8279
21296SOL     OW65328   1.658   6.867   8.804 -0.2059 -0.2983 -0.5951
21296SOL    HW165329   1.706   6.934   8.851  0.2597 -0.4589 -0.8302
21296SOL    HW265330   1.697   6.867   8.716  0.0258 -1.0831 -0.5097
21297SOL     OW65331   5.811   6.342   3.206 -0.2353 -0.3777 -0.4621
21297SOL    HW165332   5.850   6.272   3.259  2.3460  1.8356  0.8061
21297SOL    HW265333   5.810   6.307   3.117 -0.5490 -2.5816  0.3386
21298SOL     OW65334   7.158   0.898   6.135 -0.0225 -0.6616  0.5227
21298SOL    HW165335   7.091   0.854   6.085 -2.2765 -0.0617  2.8058
21298SOL    HW265336   7.160   0.987   6.100  0.9603 -1.1465 -0.7466
21299SOL     OW65337   5.278   6.714   9.402  0.0321 -0.1056  0.3305
21299SOL    HW165338   5.254   6.806   9.397 -1.2329 -0.4356 -0.0555
21299SOL    HW265339   5.196   6.667   9.386  0.6755 -1.2955  0.4199
21300SOL     OW65340   3.619   5.160   9.126  0.0660  0.6592 -0.0569
21300SOL    HW165341   3.553   5.224   9.098 -1.3515 -0.2154  1.1527
21300SOL    HW265342   3.586   5.076   9.093  0.7034  0.2405  0.3690
21301SOL     OW65343   1.244   0.355  11.209 -0.2283  0.6618  0.5497
21301SOL    HW165344   1.292   0.294  11.152 -0.4619  2.0172 -1.1873
21301SOL    HW265345   1.222   0.303  11.286  0.7849 -1.0513 -0.2423
21302SOL     OW65346   1.926   4.516   4.222 -0.3083 -0.0523 -0.8205
21302SOL    HW165347   1.863   4.498   4.152 -0.0263 -0.8439 -0.8744
21302SOL    HW265348   1.998   4.455   4.206 -0.1577 -0.1051  0.0542
21303SOL     OW65349   5.575   2.933   0.317  0.1533  0.5505 -0.5235
21303SOL    HW165350   5.521   2.856   0.335 -0.6378  0.7881 -1.7535
21303SOL    HW265351   5.624   2.910   0.238  0.6281  0.9481 -0.3489
21304SOL     OW65352   0.239   4.831   9.039 -0.1786 -0.2431  0.2342
21304SOL    HW165353   0.303   4.842   8.969 -1.4803  1.2586 -0.7988
21304SOL    HW265354   0.239   4.737   9.057  0.1221 -0.7038 -1.8692
21305SOL     OW65355   1.312   0.452   0.840 -0.2157  0.0164  0.0069
21305SOL    HW165356   1.387   0.403   0.806  0.2328  0.2646  0.6427
21305SOL    HW265357   1.247   0.385   0.861  0.5131 -0.3346  1.1619
21306SOL     OW65358   7.650   3.695   2.070  0.3761 -0.4672 -0.0179
21306SOL    HW165359   7.611   3.739   2.146 -0.1826  0.3192 -0.7272
21306SOL    HW265360   7.631   3.602   2.084 -2.9096 -0.0706 -0.8643
21307SOL     OW65361   0.477   2.322   9.352  0.2032  0.1555  0.3051
21307SOL    HW165362   0.555   2.375   9.371 -0.7606  1.2537  1.3690
21307SOL    HW265363   0.411   2.387   9.327  0.1167 -0.8824 -2.5535
21308SOL     OW65364   5.920   2.175   8.844 -0.1262  0.5854 -0.3028
21308SOL    HW165365   5.899   2.172   8.937 -1.5456  1.4275 -0.5792
21308SOL    HW265366   5.845   2.135   8.801  1.0992 -1.0470 -1.0385
21309SOL     OW65367   1.813   3.333   5.151 -0.5641  0.3818  0.4459
21309SOL    HW165368   1.802   3.388   5.229 -0.1600 -0.4637  1.1032
21309SOL    HW265369   1.757   3.257   5.166 -0.9545  0.4875 -0.3678
21310SOL     OW65370   5.712   1.018   3.665  0.2665  0.2940  0.4960
21310SOL    HW165371   5.718   0.922   3.665 -0.4479  0.2233 -0.7120
21310SOL    HW265372   5.783   1.046   3.608  0.2409  0.4573  0.5450
21311SOL     OW65373   2.890   5.209  10.451 -0.4895  0.0980 -0.4941
21311SOL    HW165374   2.816   5.152  10.467  0.1391 -1.1399 -1.7430
21311SOL    HW265375   2.967   5.157  10.474  0.0101  1.7722  1.9499
21312SOL     OW65376   0.988   7.009  10.393 -0.3040 -0.7116  0.9064
21312SOL    HW165377   0.964   7.101  10.403 -2.6508 -1.3779  2.0486
21312SOL    HW265378   0.945   6.981  10.312 -0.1888 -0.9897  0.9383
21313SOL     OW65379   6.096   5.988  12.095 -0.0554  0.0017 -0.3764
21313SOL    HW165380   6.120   6.009  12.005 -1.7648  0.9008 -0.6599
21313SOL    HW265381   6.121   6.065  12.146 -2.9208  1.3306 -0.8153
21314SOL     OW65382   6.057   3.176   6.369  0.1880  0.6049  0.1298
21314SOL    HW165383   6.089   3.161   6.458  1.7318  2.1652 -0.0895
21314SOL    HW265384   5.977   3.228   6.381 -1.0838 -1.3485  0.6235
21315SOL     OW65385   1.294   2.995   3.567  0.0480  0.4504  0.1675
21315SOL    HW165386   1.358   3.061   3.596  1.0217  1.6738 -4.1211
21315SOL    HW265387   1.347   2.928   3.524 -1.3557  1.2874 -3.1427
21316SOL     OW65388   2.669   0.604   7.088 -0.2404 -0.4045  1.1096
21316SOL    HW165389   2.672   0.640   7.177  1.0090  0.6580  0.6691
21316SOL    HW265390   2.758   0.571   7.073  0.2421  1.4928 -0.5478
21317SOL     OW65391   0.342   7.373   0.028  0.2237  0.4472 -0.4083
21317SOL    HW165392   0.387   7.302  -0.018 -0.4507  1.2683 -2.4418
21317SOL    HW265393   0.386   7.452  -0.002 -0.6397  1.0486 -0.1143
21318SOL     OW65394   1.790   3.080   7.723  0.1642 -0.3594  0.5504
21318SOL    HW165395   1.697   3.102   7.718 -0.4495 -2.4777  1.2753
21318SOL    HW265396   1.831   3.132   7.654 -1.9721 -1.2805 -1.5859
21319SOL     OW65397   7.929   5.220  11.299 -0.2088 -0.4052  0.2286
21319SOL    HW165398   7.881   5.173  11.366 -1.0334  1.6894  1.1923
21319SOL    HW265399   8.000   5.264  11.347  1.8086 -2.1845 -0.9366
21320SOL     OW65400   2.475   2.225  10.822  0.5441  0.0131 -0.8502
21320SOL    HW165401   2.535   2.296  10.842  0.3100  0.1712 -0.7049
21320SOL    HW265402   2.531   2.153  10.793  0.9072 -0.3152  0.6182
21321SOL     OW65403   1.637   5.709   3.985  0.4765 -0.2449  1.0358
21321SOL    HW165404   1.700   5.643   4.012  0.0746 -1.2409 -0.3400
21321SOL    HW265405   1.650   5.782   4.046  2.0972 -0.9065  1.5159
21322SOL     OW65406   3.842   5.037   9.927  0.5955  0.3709  0.3926
21322SOL    HW165407   3.792   5.038  10.008  1.0716 -0.2712  0.7000
21322SOL    HW265408   3.929   5.005   9.951  0.9009  0.6534 -0.2821
21323SOL     OW65409   6.521   2.793   0.581  0.2262  0.8831  0.2570
21323SOL    HW165410   6.506   2.699   0.570 -1.5133  1.0916  0.6094
21323SOL    HW265411   6.461   2.835   0.520  0.1620  1.7767  0.9051
21324SOL     OW65412   3.758   4.975   2.734  0.6371  0.1666 -0.9295
21324SOL    HW165413   3.837   4.936   2.698 -0.1387 -0.8714 -1.5612
21324SOL    HW265414   3.696   4.978   2.661 -0.0991  0.4335 -0.3184
21325SOL     OW65415   0.516   3.998   0.432 -0.5987 -0.4595 -0.2917
21325SOL    HW165416   0.437   4.036   0.473 -0.1245  0.9513 -0.6129
21325SOL    HW265417   0.535   4.057   0.359  0.4794 -1.0689 -0.5142
21326SOL     OW65418   2.035   1.079  10.110  0.4837  0.1825  0.1451
21326SOL    HW165419   2.128   1.077  10.089  1.0123  1.9740  1.9768
21326SOL    HW265420   2.029   1.044  10.199 -1.0429 -2.7127 -0.9527
21327SOL     OW65421   7.469   5.481  11.031  0.0988  0.1659 -0.1372
21327SOL    HW165422   7.546   5.464  10.977  0.6903 -1.2865  1.0932
21327SOL    HW265423   7.418   5.400  11.029 -1.4855  1.1272 -1.0014
21328SOL     OW65424   0.030   3.252   4.804 -0.0971 -0.0476 -0.3217
21328SOL    HW165425   0.042   3.266   4.898 -0.7951 -0.6004 -0.1396
21328SOL    HW265426  -0.013   3.167   4.798  0.6197 -0.3566 -1.1882
21329SOL     OW65427   4.752   0.757   6.804  0.1360  0.4417 -0.1594
21329SOL    HW165428   4.703   0.824   6.756  0.4116 -0.3024 -1.5077
21329SOL    HW265429   4.823   0.732   6.746 -0.2751 -1.4140  0.0882
21330SOL     OW65430   0.304   0.673   0.467  0.2142 -0.1662 -0.0338
21330SOL    HW165431   0.366   0.681   0.540  2.0262  0.0116 -1.5204
21330SOL    HW265432   0.221   0.651   0.509  0.5945  2.2797  2.2982
21331SOL     OW65433   4.018   7.438  11.327  0.2930 -0.1794  0.1354
21331SOL    HW165434   4.026   7.514  11.384 -0.6540 -0.3089  0.4526
21331SOL    HW265435   3.957   7.380  11.373  2.0937 -1.8071  0.6460
21332SOL     OW65436   7.866   6.732   1.524  1.0911 -1.3302 -0.6963
21332SOL    HW165437   7.782   6.701   1.490 -0.8617  0.8902  1.6420
21332SOL    HW265438   7.906   6.781   1.452 -0.1049 -1.5943 -1.5592
21333SOL     OW65439   4.191   0.140   0.692  0.1685 -0.2127  0.1282
21333SOL    HW165440   4.130   0.081   0.736 -0.6237  0.4766 -0.0148
21333SOL    HW265441   4.186   0.221   0.743 -0.0943  0.3025 -0.7079
21334SOL     OW65442   5.550   6.042  10.857  0.1113 -0.1677 -0.3439
21334SOL    HW165443   5.573   5.999  10.774 -0.2306 -2.0185  0.4674
21334SOL    HW265444   5.481   5.986  10.894  2.0343 -0.9085  2.4160
21335SOL     OW65445   4.769   7.666   5.178  0.2669 -0.2397  0.1322
21335SOL    HW165446   4.796   7.585   5.222 -1.0685 -0.1406  1.1900
21335SOL    HW265447   4.707   7.706   5.238  1.1278  1.7568 -0.2428
21336SOL     OW65448   4.009   3.851   5.065 -0.6362 -0.1441  0.0840
21336SOL    HW165449   4.050   3.771   5.098 -0.2298  0.2196  0.4756
21336SOL    HW265450   4.035   3.855   4.973  0.5945  0.3157  0.4359
21337SOL     OW65451   4.722   5.828   1.107  0.2395 -0.5756 -0.0009
21337SOL    HW165452   4.709   5.733   1.104 -0.6702 -0.4679  0.1740
21337SOL    HW265453   4.710   5.852   1.199 -2.0931  0.0141 -0.3977
21338SOL     OW65454   7.048   5.256   5.829 -0.3656 -0.1055 -0.3412
21338SOL    HW165455   7.123   5.262   5.888 -1.3010  2.9736  0.7012
21338SOL    HW265456   6.981   5.210   5.879 -0.5241  0.8114  0.3008
21339SOL     OW65457   4.592   3.482   2.542 -0.8062  0.2737  0.0521
21339SOL    HW165458   4.568   3.403   2.494  0.8716 -0.3960  0.2436
21339SOL    HW265459   4.511   3.511   2.583 -1.2415 -2.0865  1.0228
21340SOL     OW65460   4.648   5.045   3.281  0.0724  0.2864  0.0708
21340SOL    HW165461   4.735   5.006   3.293  1.0023  2.0763 -0.4333
21340SOL    HW265462   4.590   4.970   3.266  1.6314 -0.9302 -0.1895
21341SOL     OW65463   1.187   5.342   7.132 -0.3022  0.2719  0.6891
21341SOL    HW165464   1.257   5.362   7.193  1.1737 -0.1978 -0.7842
21341SOL    HW265465   1.153   5.427   7.105  2.6561  0.8010 -1.8319
21342SOL     OW65466   0.557   7.570   9.695 -0.0902 -0.0982 -0.3801
21342SOL    HW165467   0.646   7.554   9.727  0.5254  2.2457 -0.6871
21342SOL    HW265468   0.558   7.536   9.605  0.7294  0.4865 -0.6064
21343SOL     OW65469   2.754   1.603   2.676 -0.4884  0.2802 -0.8558
21343SOL    HW165470   2.783   1.526   2.628 -0.5524 -0.7853  0.7219
21343SOL    HW265471   2.835   1.650   2.697 -0.5045  1.0810 -2.4586
21344SOL     OW65472   5.631   7.227   0.532 -0.2856  0.6427 -0.5306
21344SOL    HW165473   5.589   7.242   0.447 -0.1296  2.0914 -0.3795
21344SOL    HW265474   5.579   7.279   0.593 -0.1670 -0.0870  0.2130
21345SOL     OW65475   5.885   3.791   3.440  0.3428  0.1831  0.2659
21345SOL    HW165476   5.899   3.748   3.356  0.7186 -0.7223  0.7731
21345SOL    HW265477   5.815   3.854   3.424  0.2797 -0.1119 -0.6707
21346SOL     OW65478   1.546   7.788   4.743 -0.0737 -0.0051  0.4775
21346SOL    HW165479   1.620   7.753   4.692 -0.2254  1.4298 -0.7963
21346SOL    HW265480   1.486   7.822   4.677 -2.0166 -1.3110  1.4734
21347SOL     OW65481   3.646   7.227   4.508 -0.3887  0.0171 -0.5789
21347SOL    HW165482   3.674   7.191   4.424 -1.1134  0.5105 -1.0521
21347SOL    HW265483   3.685   7.315   4.510  0.0804 -0.1993 -0.1469
21348SOL     OW65484   2.967   6.766   8.259 -0.1779  0.4829 -0.0784
21348SOL    HW165485   2.929   6.763   8.347 -0.4886 -2.3097 -0.2048
21348SOL    HW265486   3.061   6.772   8.274  0.1540 -3.5609  0.7580
21349SOL     OW65487   5.157   4.359   0.503 -0.3087 -0.8832  0.2960
21349SOL    HW165488   5.220   4.385   0.435 -0.7252  2.9573  1.1334
21349SOL    HW265489   5.081   4.329   0.455 -0.9100  2.5113 -1.1667
21350SOL     OW65490   4.560   1.360   3.358  0.4001  0.8470  0.0362
21350SOL    HW165491   4.604   1.445   3.344  0.2977  0.5934 -2.2421
21350SOL    HW265492   4.473   1.372   3.320 -0.2237  0.2094  1.2295
21351SOL     OW65493   6.785   0.262   1.130  0.8288 -0.2026  0.3617
21351SOL    HW165494   6.834   0.219   1.200 -1.9465 -0.5120  2.2926
21351SOL    HW265495   6.704   0.292   1.172 -0.2512  1.1239 -2.3790
21352SOL     OW65496   6.347   4.460   0.952  0.7088 -0.5419  0.4233
21352SOL    HW165497   6.381   4.371   0.967 -0.3935 -0.8998  0.8716
21352SOL    HW265498   6.327   4.463   0.859  1.4650 -0.4949  0.2533
21353SOL     OW65499   6.667   2.606  10.794 -0.3683  0.2905  0.1554
21353SOL    HW165500   6.603   2.620  10.725  0.5900 -0.2155 -0.8623
21353SOL    HW265501   6.617   2.568  10.866 -1.2421  0.0817 -0.5547
21354SOL     OW65502   5.626   1.288   1.069  0.1483  0.6843  0.4169
21354SOL    HW165503   5.599   1.307   1.159  0.9117 -0.9143  1.0310
21354SOL    HW265504   5.705   1.341   1.056  0.7714 -0.0290  1.1710
21355SOL     OW65505   3.987   4.167  11.453 -0.0169  0.0413  0.0336
21355SOL    HW165506   4.044   4.240  11.430 -0.8395  0.3998 -0.9001
21355SOL    HW265507   4.006   4.150  11.546  0.2772  1.3422  0.2274
21356SOL     OW65508   0.998   3.088   9.730 -0.3790 -0.1237  0.2736
21356SOL    HW165509   0.953   3.143   9.794 -0.6977 -0.5646  0.4279
21356SOL    HW265510   0.971   2.999   9.750 -0.8435 -0.2347 -0.7606
21357SOL     OW65511   2.470   4.287   4.014 -0.1555  0.3855 -0.2984
21357SOL    HW165512   2.379   4.259   4.018  0.3931 -1.5537 -0.5907
21357SOL    HW265513   2.520   4.207   4.000  1.4966  1.5722 -1.6653
21358SOL     OW65514   6.080   3.235   4.662  0.1839 -0.2666 -0.1820
21358SOL    HW165515   6.012   3.253   4.597  1.3505  2.7735 -0.7267
21358SOL    HW265516   6.099   3.320   4.701  3.1089 -1.1285  0.5122
21359SOL     OW65517   5.454   0.159   3.358 -0.1483  0.3540  0.0206
21359SOL    HW165518   5.422   0.184   3.272  1.0384  0.9713 -0.2738
21359SOL    HW265519   5.417   0.225   3.417  0.8437  1.3018 -0.3737
21360SOL     OW65520   3.550   2.308   1.787 -0.2052  0.3546  0.4499
21360SOL    HW165521   3.592   2.238   1.737  0.6122  1.5444 -0.5702
21360SOL    HW265522   3.605   2.317   1.865  0.5263  0.8203 -0.1088
21361SOL     OW65523   3.462   1.442   4.623  0.4434  0.0295  0.3921
21361SOL    HW165524   3.468   1.527   4.668  0.6784  0.9464 -1.3011
21361SOL    HW265525   3.404   1.390   4.679  0.9842  0.9968  1.9192
21362SOL     OW65526   2.443   5.026   2.785 -0.2630 -0.4533 -0.6413
21362SOL    HW165527   2.455   5.116   2.817 -2.0234 -0.3195 -0.2862
21362SOL    HW265528   2.487   4.972   2.851  1.1958  0.1397 -1.0817
21363SOL     OW65529   7.857   4.647  10.388 -0.2128 -0.0967  0.4451
21363SOL    HW165530   7.805   4.623  10.311 -0.8280 -1.4895  1.2664
21363SOL    HW265531   7.938   4.597  10.379  1.1112  2.1104 -0.8605
21364SOL     OW65532   0.135   5.001   1.068  0.2465 -0.3177 -0.4596
21364SOL    HW165533   0.082   4.922   1.061  0.9361 -0.8896  0.5393
21364SOL    HW265534   0.084   5.069   1.024 -0.9074 -1.0387 -0.2508
21365SOL     OW65535   6.071   6.227  12.274  0.4609  0.3906  0.6055
21365SOL    HW165536   5.987   6.182  12.284  0.4835 -0.9241 -3.4069
21365SOL    HW265537   6.048   6.315  12.243  0.3721 -0.6335 -2.6370
21366SOL     OW65538   0.976   1.922   1.902 -0.5199  0.3070  0.4917
21366SOL    HW165539   0.978   1.827   1.911  2.9426 -0.0141 -1.5864
21366SOL    HW265540   0.944   1.937   1.813  0.3108  0.9568  0.2831
21367SOL     OW65541   6.017   3.713   2.030  0.1743 -0.4978  0.1101
21367SOL    HW165542   6.063   3.641   2.073  1.1616  1.0718  1.8094
21367SOL    HW265543   5.950   3.670   1.977  1.7455 -2.7322 -0.2294
21368SOL     OW65544   6.304   4.690   7.173  0.0896 -0.5217 -0.3521
21368SOL    HW165545   6.235   4.646   7.124 -0.2304  0.1775 -0.5511
21368SOL    HW265546   6.328   4.628   7.242 -0.1416 -1.1141 -0.7990
21369SOL     OW65547   6.007   6.716   6.203 -0.0463  0.1007  0.3469
21369SOL    HW165548   6.008   6.800   6.250  0.1375  0.5607 -0.4512
21369SOL    HW265549   5.970   6.738   6.118  1.7735 -0.2470 -0.5732
21370SOL     OW65550   2.927   5.827   6.102 -0.6573 -0.1866  0.3875
21370SOL    HW165551   2.834   5.803   6.094 -0.9699  1.2077 -0.5048
21370SOL    HW265552   2.930   5.887   6.177 -1.0811  2.2782 -1.4337
21371SOL     OW65553   6.991   2.199   3.683  0.3647 -0.4583 -0.2801
21371SOL    HW165554   6.995   2.201   3.588  1.7484  2.1210 -0.2390
21371SOL    HW265555   7.037   2.119   3.708 -1.1944 -1.8960 -1.7433
21372SOL     OW65556   2.162   2.530   5.289  0.6330  0.5457 -0.4873
21372SOL    HW165557   2.233   2.575   5.334  1.2953 -0.5804 -0.3672
21372SOL    HW265558   2.204   2.487   5.215  0.2338 -0.7695  0.0175
21373SOL     OW65559   2.274   5.128  11.665  0.3196 -0.2047 -0.3299
21373SOL    HW165560   2.234   5.143  11.579 -1.1515  0.1035  0.3828
21373SOL    HW265561   2.215   5.068  11.709 -0.5740  1.9252  1.5554
21374SOL     OW65562   1.674   6.636   0.492 -0.3721  0.4383 -0.0198
21374SOL    HW165563   1.661   6.619   0.585 -1.3294 -1.9769 -0.5296
21374SOL    HW265564   1.768   6.628   0.479 -0.1861  1.1711  0.7771
21375SOL     OW65565   6.892   0.299   7.359  0.3009  0.2055 -0.3263
21375SOL    HW165566   6.824   0.352   7.316 -0.7339  0.1039  1.0900
21375SOL    HW265567   6.855   0.210   7.359  0.5789  0.0917  0.1803
21376SOL     OW65568   6.350   4.163   5.942 -0.6174 -0.9009  0.3628
21376SOL    HW165569   6.276   4.221   5.925 -0.7017 -0.7198  1.3408
21376SOL    HW265570   6.420   4.220   5.972 -0.2132 -1.1308 -0.1120
21377SOL     OW65571   3.755   0.251   7.945  0.2825  0.1524  0.6355
21377SOL    HW165572   3.673   0.266   7.897  0.6360 -1.9579 -0.7809
21377SOL    HW265573   3.727   0.215   8.029 -0.2903 -0.1228  0.3419
21378SOL     OW65574   7.860   1.071  11.253  0.4010  0.8944  0.3551
21378SOL    HW165575   7.806   1.012  11.199  0.3420  1.5231 -0.2938
21378SOL    HW265576   7.949   1.059  11.219 -0.1281  4.4023 -2.9710
21379SOL     OW65577   3.745   2.091   6.094  0.3171  0.7119 -0.1140
21379SOL    HW165578   3.785   2.166   6.139  0.9853 -0.2187  0.8745
21379SOL    HW265579   3.815   2.026   6.090 -0.6634 -0.3938  0.3407
21380SOL     OW65580   1.878   4.742   9.164  0.2739 -0.5005  0.2215
21380SOL    HW165581   1.790   4.779   9.170  1.1452  1.7831 -0.4392
21380SOL    HW265582   1.906   4.733   9.255 -0.4455 -0.8410  0.4209
21381SOL     OW65583   7.597   7.570   8.645 -0.1266  0.2424  0.7088
21381SOL    HW165584   7.615   7.476   8.635 -1.5128 -0.1861  1.7985
21381SOL    HW265585   7.542   7.592   8.569  0.4696  0.2630  0.2775
21382SOL     OW65586   7.430   3.257   8.928 -0.2581 -0.3376 -0.3835
21382SOL    HW165587   7.444   3.259   9.023  0.7635  0.8563 -0.5353
21382SOL    HW265588   7.481   3.182   8.898 -1.8012 -1.6629  0.1554
21383SOL     OW65589   6.427   0.886   6.652  0.5617 -0.2242  0.6528
21383SOL    HW165590   6.446   0.952   6.718  3.2924 -0.0715 -0.1544
21383SOL    HW265591   6.496   0.822   6.661 -0.5764 -1.6496 -0.2749
21384SOL     OW65592   7.803   4.581   8.606 -0.1681  0.0451  0.2684
21384SOL    HW165593   7.713   4.550   8.604 -0.7318  1.6692 -0.3409
21384SOL    HW265594   7.853   4.510   8.566 -1.5794  0.3380 -2.1981
21385SOL     OW65595   2.960   0.702   2.074 -0.0214  0.3168 -0.3866
21385SOL    HW165596   2.937   0.778   2.021 -2.2023 -0.5628 -0.8154
21385SOL    HW265597   2.929   0.723   2.162 -0.7155 -0.0832 -0.5260
21386SOL     OW65598   3.245   7.193   9.025 -0.0457 -0.1542  0.1381
21386SOL    HW165599   3.240   7.239   8.941  0.7338  1.0571  0.7182
21386SOL    HW265600   3.190   7.245   9.084  0.1981 -0.4239  0.6135
21387SOL     OW65601   0.211   5.402   5.580  0.1291  0.0300 -0.0346
21387SOL    HW165602   0.180   5.483   5.539 -0.3967 -0.0857  0.1202
21387SOL    HW265603   0.135   5.371   5.630 -0.2799 -1.4767 -1.4789
21388SOL     OW65604   4.234   5.015   2.846 -0.4003 -0.3855  0.5029
21388SOL    HW165605   4.205   4.934   2.803 -0.1357  0.0251 -0.4694
21388SOL    HW265606   4.257   4.987   2.935  1.5803 -1.8161 -0.3635
21389SOL     OW65607   4.667   1.039   4.697 -0.1986  0.6107  0.6740
21389SOL    HW165608   4.579   1.026   4.660 -1.1219  0.0793  2.8766
21389SOL    HW265609   4.706   0.952   4.695  0.8071  1.0500 -1.3945
21390SOL     OW65610   6.202   7.311   8.272  0.5830  0.0765 -0.5056
21390SOL    HW165611   6.263   7.238   8.286 -1.5983 -1.9477 -0.8302
21390SOL    HW265612   6.177   7.303   8.180 -0.3599  0.6813 -0.3115
21391SOL     OW65613   3.117   2.068   9.497  0.4893  0.1133  0.0628
21391SOL    HW165614   3.177   1.996   9.514  0.5277  0.0310 -0.4308
21391SOL    HW265615   3.133   2.129   9.569  0.7056 -0.2049  0.2879
21392SOL     OW65616   3.824   2.613   4.411  0.1288  0.3200  0.5857
21392SOL    HW165617   3.905   2.652   4.378  0.7007 -0.3989  1.0869
21392SOL    HW265618   3.770   2.600   4.333 -0.6221  3.1921  0.5029
21393SOL     OW65619   6.701   5.351   5.267  0.2860  0.1274 -0.0743
21393SOL    HW165620   6.696   5.447   5.260  0.0745  0.2960  1.8241
21393SOL    HW265621   6.626   5.319   5.217  0.5506  0.9172 -1.0093
21394SOL     OW65622   4.156   5.759   3.970  0.2428  0.4819 -0.0342
21394SOL    HW165623   4.078   5.786   3.923  0.6971  0.2568 -0.9386
21394SOL    HW265624   4.151   5.663   3.970  0.6888  0.4553 -0.4045
21395SOL     OW65625   1.606   3.669   8.736  0.0634  0.1817 -0.3428
21395SOL    HW165626   1.660   3.591   8.748 -0.4987 -0.4252 -1.5831
21395SOL    HW265627   1.666   3.735   8.702  0.3109 -0.0732 -0.4009
21396SOL     OW65628   0.339   3.456   4.677  0.1627  0.1178 -0.1885
21396SOL    HW165629   0.325   3.479   4.769  0.7009 -2.1978  0.5540
21396SOL    HW265630   0.264   3.402   4.654 -0.4128  1.3978 -1.4186
21397SOL     OW65631   1.881   0.303   1.200  0.2641 -0.1048 -0.0249
21397SOL    HW165632   1.954   0.342   1.247  1.7869 -2.2508 -0.4634
21397SOL    HW265633   1.832   0.255   1.266 -1.6062  2.3328  0.5132
21398SOL     OW65634   6.221   6.149   6.914 -0.0532  0.3061 -0.5275
21398SOL    HW165635   6.251   6.078   6.858  0.8103 -0.1649  0.4782
21398SOL    HW265636   6.285   6.151   6.985 -1.2114  0.7401  0.5466
21399SOL     OW65637   0.429   1.557  10.908  0.3538  0.3608 -0.4954
21399SOL    HW165638   0.443   1.585  10.999 -0.9478  1.2533 -0.5534
21399SOL    HW265639   0.351   1.502  10.912 -0.4409  1.4147 -1.2556
21400SOL     OW65640   2.129   1.310   3.550  0.1540  0.0251 -0.0805
21400SOL    HW165641   2.184   1.384   3.576 -0.1602 -0.3257  1.7007
21400SOL    HW265642   2.081   1.341   3.473  0.7915  1.2953  0.0199
21401SOL     OW65643   4.380   4.041   9.625  0.7261  0.2302 -0.4612
21401SOL    HW165644   4.302   4.085   9.658  0.1484 -0.5477 -0.7522
21401SOL    HW265645   4.349   3.992   9.549  1.1059 -1.5469  0.4840
21402SOL     OW65646   3.147   4.100   6.844 -0.2208  0.2540 -0.1051
21402SOL    HW165647   3.058   4.079   6.873 -0.1691  0.8572  0.4920
21402SOL    HW265648   3.160   4.043   6.767 -1.4846  0.8843 -0.8212
21403SOL     OW65649   4.073   5.053  10.887  0.1344 -0.5983 -0.6536
21403SOL    HW165650   4.166   5.047  10.909 -0.3195 -1.2896  1.2556
21403SOL    HW265651   4.035   5.107  10.956 -1.0778 -1.2900 -0.7505
21404SOL     OW65652   4.400   6.224   3.908 -0.1919 -0.4052  0.1502
21404SOL    HW165653   4.331   6.225   3.974 -0.1868 -0.1567  0.1523
21404SOL    HW265654   4.392   6.138   3.866 -1.2078  0.0388 -0.5982
21405SOL     OW65655   5.505   3.986  11.172 -0.0312 -0.0417  0.9046
21405SOL    HW165656   5.581   3.997  11.229  0.8692 -2.6520  0.3463
21405SOL    HW265657   5.453   3.918  11.214 -0.2257 -0.7856 -0.4620
21406SOL     OW65658   0.290   2.023   0.824  0.2510  0.2021  0.0643
21406SOL    HW165659   0.355   1.993   0.761 -1.0291 -1.1176 -0.7158
21406SOL    HW265660   0.336   2.084   0.880  1.9510 -0.1273 -0.9160
21407SOL     OW65661   1.916   3.381   4.639  0.1890 -0.2484 -0.1408
21407SOL    HW165662   1.867   3.410   4.562 -0.3564  0.8157  0.5819
21407SOL    HW265663   1.958   3.300   4.611  2.3841  1.5553 -2.5234
21408SOL     OW65664   6.184   4.723   0.770  0.0730  0.3019 -0.2066
21408SOL    HW165665   6.198   4.806   0.815 -1.0517 -0.7379  2.2604
21408SOL    HW265666   6.097   4.731   0.731 -0.5891 -0.1019  1.1164
21409SOL     OW65667   4.481   3.453   0.878  0.5969  0.7897 -0.2488
21409SOL    HW165668   4.422   3.424   0.808 -0.9533 -0.7170  1.6028
21409SOL    HW265669   4.562   3.474   0.832  0.8095 -3.3436 -2.2383
21410SOL     OW65670   6.249   0.073   2.425  0.4268 -0.3653  0.4727
21410SOL    HW165671   6.212   0.146   2.475  0.6644 -0.9977  1.6086
21410SOL    HW265672   6.225   0.092   2.334  0.3479  1.0397  0.7561
21411SOL     OW65673   3.280   2.362   8.094  0.3994  0.2479  0.0447
21411SOL    HW165674   3.259   2.441   8.145 -0.0743  0.5418 -0.5927
21411SOL    HW265675   3.198   2.312   8.094  0.6952 -0.2345  0.4323
21412SOL     OW65676   7.145   0.070   7.539 -0.1807  0.0249  0.1787
21412SOL    HW165677   7.154   0.153   7.491  1.7278  0.3612  1.0309
21412SOL    HW265678   7.055   0.071   7.571 -0.2824  1.6349 -0.0598
21413SOL     OW65679   5.415   6.703   4.084  0.2593  0.1232 -0.1973
21413SOL    HW165680   5.467   6.761   4.139 -0.3636 -1.4235  2.1463
21413SOL    HW265681   5.396   6.627   4.139 -2.2240 -0.5787 -1.8289
21414SOL     OW65682   1.992   6.905   1.870  0.1335 -0.4402  0.3844
21414SOL    HW165683   1.896   6.913   1.864  0.2387  0.0918 -1.0778
21414SOL    HW265684   2.025   6.967   1.805  1.4748 -0.7443  0.7483
21415SOL     OW65685   4.270   7.811   0.811 -0.3913 -0.4842 -0.1156
21415SOL    HW165686   4.343   7.853   0.857 -0.8807 -0.2196  0.4283
21415SOL    HW265687   4.221   7.882   0.771 -1.8436 -0.3928  1.7141
21416SOL     OW65688   5.960   0.044   2.188  0.1511 -0.2197  0.2894
21416SOL    HW165689   6.044   0.083   2.163 -0.3364  2.9267  2.8170
21416SOL    HW265690   5.895   0.096   2.142 -0.4772 -1.1198  0.1399
21417SOL     OW65691   4.592   6.938   0.826  0.4264 -0.0526  0.2788
21417SOL    HW165692   4.637   6.869   0.777  0.1478  0.0265 -0.0873
21417SOL    HW265693   4.651   7.014   0.820  1.1240 -0.4809  1.3655
21418SOL     OW65694   5.482   6.442   5.806  0.5859  0.6001  0.0823
21418SOL    HW165695   5.488   6.347   5.797  0.5909  0.7304 -1.6255
21418SOL    HW265696   5.415   6.468   5.743 -0.4732  1.6037  1.5643
21419SOL     OW65697   2.652   0.510   3.298  0.0721  0.2493  0.6796
21419SOL    HW165698   2.686   0.421   3.285  0.7357  0.4133  1.2856
21419SOL    HW265699   2.559   0.497   3.317 -0.0692 -0.2415 -0.2652
21420SOL     OW65700   7.726   4.770  11.482 -0.1868  0.2996  0.3201
21420SOL    HW165701   7.675   4.739  11.556 -1.3334 -0.0915 -0.6193
21420SOL    HW265702   7.800   4.709  11.476 -1.8124 -1.6829 -0.8173
21421SOL     OW65703   1.181   5.260   7.482 -0.5263  0.1088 -0.3859
21421SOL    HW165704   1.275   5.248   7.486 -0.3504  1.0364 -1.3715
21421SOL    HW265705   1.153   5.263   7.574 -0.0507 -3.1700 -0.0321
21422SOL     OW65706   0.104   4.609   8.432 -0.4242  0.1048  0.1278
21422SOL    HW165707   0.084   4.522   8.466 -1.5970  0.4215  0.3009
21422SOL    HW265708   0.093   4.668   8.507  1.7927  0.2756  0.3903
21423SOL     OW65709   4.647   5.730   1.570 -0.4062  0.1765  0.3651
21423SOL    HW165710   4.602   5.649   1.544 -3.2008  1.5222  0.6062
21423SOL    HW265711   4.668   5.773   1.487  1.3370 -0.8600  0.2300
21424SOL     OW65712   3.407   6.037  12.076 -0.4598 -0.7553  0.2863
21424SOL    HW165713   3.316   6.008  12.070 -0.8173 -0.2732  2.4587
21424SOL    HW265714   3.446   6.013  11.992 -2.1229 -2.6030 -0.0251
21425SOL     OW65715   3.574   0.176   5.352  0.1685 -0.0962  0.4445
21425SOL    HW165716   3.668   0.178   5.337  0.0573 -2.0240 -0.8498
21425SOL    HW265717   3.538   0.241   5.291  0.6251  0.7204  1.0179
21426SOL     OW65718   4.251   0.204   3.821 -0.3143  0.3615 -0.5812
21426SOL    HW165719   4.263   0.299   3.812 -1.3629  0.6803  1.0345
21426SOL    HW265720   4.211   0.177   3.738  0.5499  1.2226 -1.2925
21427SOL     OW65721   0.352   6.731   2.041 -0.4556 -0.2685 -0.0491
21427SOL    HW165722   0.446   6.717   2.039 -0.3107  0.6939 -0.8144
21427SOL    HW265723   0.314   6.644   2.033  0.3879 -0.4905 -2.6334
21428SOL     OW65724   3.736   7.555   5.802  0.5609 -0.3534  0.2614
21428SOL    HW165725   3.651   7.587   5.774 -0.3822 -2.7588  0.1500
21428SOL    HW265726   3.751   7.597   5.887 -0.1638  0.9920 -0.2604
21429SOL     OW65727   3.293   4.240   3.766  0.7023 -0.2673 -0.0012
21429SOL    HW165728   3.284   4.212   3.858  0.9674  1.2153  0.4995
21429SOL    HW265729   3.377   4.287   3.764 -0.6048  2.1994 -0.3223
21430SOL     OW65730   5.410   1.060   7.346  0.8672 -0.1565 -0.3167
21430SOL    HW165731   5.352   0.996   7.306 -0.1363  0.2090  0.4916
21430SOL    HW265732   5.488   1.061   7.291  1.5195 -3.0685  0.3794
21431SOL     OW65733   3.867   0.746   0.265  0.0762  0.6125 -0.1126
21431SOL    HW165734   3.914   0.682   0.212 -0.8414 -0.7310  0.6471
21431SOL    HW265735   3.912   0.745   0.350 -0.8746 -0.2008  0.4038
21432SOL     OW65736   3.331   7.286   1.574  0.4693 -0.1618  0.3758
21432SOL    HW165737   3.310   7.301   1.482  0.0600 -1.8913  0.1509
21432SOL    HW265738   3.257   7.325   1.621  0.7909  0.9353  0.0028
21433SOL     OW65739   5.390   0.078   0.339  0.1212 -0.7853  0.6358
21433SOL    HW165740   5.451   0.011   0.369 -1.1218 -2.1344  0.2755
21433SOL    HW265741   5.443   0.157   0.333  2.3592 -2.2875 -1.6160
21434SOL     OW65742   1.926   7.301   3.986  0.1638  0.0890 -0.1411
21434SOL    HW165743   1.988   7.247   3.937 -0.1337  0.4596 -0.9428
21434SOL    HW265744   1.853   7.242   4.005  0.7442 -0.3553  0.8256
21435SOL     OW65745   0.675   2.078   0.877  0.0474 -0.7318  0.0053
21435SOL    HW165746   0.737   2.139   0.837  0.4522 -1.1067  0.0437
21435SOL    HW265747   0.603   2.133   0.907  0.7065 -0.1833  0.6280
21436SOL     OW65748   1.591   3.134   4.952  0.3521 -0.1015  0.6599
21436SOL    HW165749   1.605   3.140   5.047 -0.8907  0.8247  0.8209
21436SOL    HW265750   1.501   3.101   4.944  0.7285 -0.9294 -0.2062
21437SOL     OW65751   7.116   6.926   9.250  0.3171 -0.1996  0.2583
21437SOL    HW165752   7.093   6.833   9.248 -2.6035  0.4528 -0.4089
21437SOL    HW265753   7.081   6.958   9.333 -2.7283  1.1168 -1.3851
21438SOL     OW65754   0.238   5.200   1.820 -0.2042  0.5764 -0.0784
21438SOL    HW165755   0.218   5.291   1.843  1.0146  1.0022 -0.6481
21438SOL    HW265756   0.248   5.156   1.905 -3.5751  0.2620  0.2913
21439SOL     OW65757   4.822   6.109   7.834 -0.0836 -0.1680  0.2238
21439SOL    HW165758   4.898   6.083   7.886  0.3598  0.1536 -0.2641
21439SOL    HW265759   4.768   6.030   7.830 -0.2239 -0.1528  1.3327
21440SOL     OW65760   1.488   4.303   8.325 -0.2634  0.1850  0.0636
21440SOL    HW165761   1.396   4.280   8.313 -0.2330  0.4655 -0.7482
21440SOL    HW265762   1.537   4.229   8.289 -0.1700  0.4402 -0.3347
21441SOL     OW65763   6.753   7.537   3.166  0.0648  0.1363  0.0324
21441SOL    HW165764   6.660   7.520   3.186  0.2027  1.0802  1.6803
21441SOL    HW265765   6.790   7.450   3.152 -0.5061 -0.5375  2.2250
21442SOL     OW65766   0.435   1.004   1.907  0.1511  0.2534  0.1432
21442SOL    HW165767   0.417   1.078   1.966  0.6985 -1.0545  2.0349
21442SOL    HW265768   0.351   0.989   1.863 -0.5972  0.6196  1.3709
21443SOL     OW65769   3.691   6.822   4.786  0.3807 -0.4900 -0.2296
21443SOL    HW165770   3.630   6.796   4.717 -0.3891  0.7479 -0.0482
21443SOL    HW265771   3.678   6.916   4.796  1.0632 -0.5001  1.0396
21444SOL     OW65772   0.042   1.915   4.404 -0.1312  0.4665 -0.1187
21444SOL    HW165773   0.132   1.938   4.380 -0.0574  0.5545  0.2414
21444SOL    HW265774   0.050   1.834   4.454 -0.2947  0.2348 -0.4588
21445SOL     OW65775   6.203   6.496   4.114  0.0192 -0.3716 -0.0762
21445SOL    HW165776   6.215   6.438   4.039 -3.5294 -0.7410 -0.5343
21445SOL    HW265777   6.140   6.561   4.084 -1.4864 -0.5017  2.5112
21446SOL     OW65778   7.453   6.306  11.577  0.2482  0.4216 -0.1922
21446SOL    HW165779   7.516   6.378  11.568 -0.8899  1.9137  2.4203
21446SOL    HW265780   7.429   6.308  11.670 -1.9807 -1.5332 -0.6488
21447SOL     OW65781   2.370   7.847   0.260 -0.5216 -0.0377  0.3447
21447SOL    HW165782   2.306   7.792   0.215  0.6308 -1.1612  0.0134
21447SOL    HW265783   2.359   7.826   0.352 -0.1616 -0.7891  0.2289
21448SOL     OW65784   2.763   2.309   7.821  0.5602 -0.1257 -0.7169
21448SOL    HW165785   2.798   2.235   7.871  1.6947 -0.7744 -2.3714
21448SOL    HW265786   2.836   2.371   7.818 -0.3210  1.0241  0.4983
21449SOL     OW65787   7.354   7.933   1.289  0.5996 -0.5979 -0.2532
21449SOL    HW165788   7.276   7.916   1.237  0.1197 -0.3201  0.3687
21449SOL    HW265789   7.404   7.997   1.237  0.2566 -0.5273 -0.4959
21450SOL     OW65790   1.937   5.755  10.181 -0.1106 -0.3517 -0.0714
21450SOL    HW165791   2.017   5.765  10.231 -0.7705 -2.9303  1.7096
21450SOL    HW265792   1.966   5.746  10.090  1.3037  1.8419  0.0786
21451SOL     OW65793   4.054   2.227  11.530 -0.1995 -0.3797 -0.1793
21451SOL    HW165794   4.091   2.148  11.569 -0.4763  0.0275  0.9799
21451SOL    HW265795   4.129   2.285  11.519 -0.1752 -0.3358  0.1882
21452SOL     OW65796   5.938   4.972   2.436  0.0696  0.5045 -0.0012
21452SOL    HW165797   6.001   4.925   2.490 -0.4410 -0.8163 -0.5077
21452SOL    HW265798   5.860   4.917   2.437 -0.4978  1.2636 -0.7631
21453SOL     OW65799   3.397   5.247   2.549  0.4177 -0.6579  0.4102
21453SOL    HW165800   3.357   5.171   2.591 -0.6582  0.1701  0.9312
21453SOL    HW265801   3.379   5.320   2.608  2.2565 -0.1292  0.3883
21454SOL     OW65802   7.381   1.521  10.132 -0.5140  0.1115  0.6160
21454SOL    HW165803   7.397   1.504  10.040 -0.9195  0.4292  0.4834
21454SOL    HW265804   7.442   1.463  10.179  0.7495  1.0331  0.1404
21455SOL     OW65805   7.707   2.487   7.156  0.1011  0.1924 -0.8915
21455SOL    HW165806   7.781   2.446   7.200 -0.0866  0.8855  0.1089
21455SOL    HW265807   7.634   2.426   7.167  0.0610  0.3535 -0.2398
21456SOL     OW65808   6.306   0.080   8.671 -0.1382 -0.3036  0.2252
21456SOL    HW165809   6.249   0.009   8.699  0.6322 -1.2645 -0.5702
21456SOL    HW265810   6.299   0.082   8.576  1.8007 -1.0500  0.0261
21457SOL     OW65811   3.970   3.061   2.339 -0.5762  0.1090  0.3443
21457SOL    HW165812   3.897   3.026   2.289 -0.4051  0.4087 -0.1235
21457SOL    HW265813   3.930   3.103   2.415 -0.8302 -0.4487  0.5193
21458SOL     OW65814   6.969   0.574   5.488  0.3347  0.6606  0.2571
21458SOL    HW165815   6.939   0.575   5.579 -1.1474  2.4919 -0.1887
21458SOL    HW265816   6.917   0.505   5.446  0.5741  0.2411  0.6412
21459SOL     OW65817   5.011   6.928   6.526  0.0667 -0.2745  0.5800
21459SOL    HW165818   4.984   7.010   6.485  3.5008  1.3544  1.2034
21459SOL    HW265819   5.019   6.866   6.454 -0.2180  0.6234 -0.2467
21460SOL     OW65820   1.386   7.724   1.502 -0.6003  0.2183 -0.2648
21460SOL    HW165821   1.468   7.681   1.477 -1.7589 -2.1383 -0.2938
21460SOL    HW265822   1.355   7.673   1.577 -1.8593  1.2917 -0.0407
21461SOL     OW65823   3.916   2.716   6.432 -0.4660 -0.0207 -0.0040
21461SOL    HW165824   3.860   2.641   6.411 -0.8531  0.2165  0.1627
21461SOL    HW265825   3.855   2.783   6.464  0.0963 -0.4038  2.0014
21462SOL     OW65826   1.817   0.602   3.981  0.1500  0.3553 -0.3742
21462SOL    HW165827   1.755   0.547   4.029  0.0215  0.9971  0.2181
21462SOL    HW265828   1.764   0.643   3.913 -0.4787  2.1200  1.0921
21463SOL     OW65829   2.028   2.520   3.825 -0.2476 -0.7004 -0.7831
21463SOL    HW165830   1.998   2.447   3.879 -0.1017 -0.0217  0.2496
21463SOL    HW265831   2.099   2.559   3.875 -0.5665  0.3665 -1.1320
21464SOL     OW65832   4.263   2.640   4.997 -0.2136 -0.1903  0.5927
21464SOL    HW165833   4.297   2.717   5.041 -0.9286  0.4748  0.0261
21464SOL    HW265834   4.337   2.580   4.990  0.9715  1.3735 -0.9921
21465SOL     OW65835   1.721   1.763   3.943  0.4146 -0.0365 -0.3200
21465SOL    HW165836   1.781   1.738   4.014  2.1686  2.0729 -0.9516
21465SOL    HW265837   1.640   1.788   3.988  0.1007 -2.4428  0.5964
21466SOL     OW65838   1.631   6.953   3.670  0.4346 -0.2373  0.4763
21466SOL    HW165839   1.691   6.949   3.596  1.0273 -0.5529  0.9680
21466SOL    HW265840   1.546   6.929   3.633  0.7412 -0.4900 -0.0785
21467SOL     OW65841   5.568   2.273  10.494 -0.1696  0.3903  0.0743
21467SOL    HW165842   5.554   2.193  10.545 -0.3392  0.7091  0.5255
21467SOL    HW265843   5.494   2.275  10.432 -0.6067  0.6175  0.5993
21468SOL     OW65844   3.778   0.167   9.405  0.1358  0.4815  0.1338
21468SOL    HW165845   3.715   0.222   9.451 -2.1624 -1.9999  0.1968
21468SOL    HW265846   3.726   0.095   9.370  2.6839 -0.7135 -1.5141
21469SOL     OW65847   7.175   3.210   2.772  0.3386  0.4689 -0.2658
21469SOL    HW165848   7.226   3.167   2.840  0.4827 -2.5339 -2.1064
21469SOL    HW265849   7.235   3.275   2.735  1.0141  0.5536  0.9276
21470SOL     OW65850   0.809   6.974  10.654 -0.6378  0.2652  0.9093
21470SOL    HW165851   0.855   7.043  10.607  2.0623 -0.0939  2.7891
21470SOL    HW265852   0.716   6.990  10.637  0.0856  1.2088 -2.8744
21471SOL     OW65853   6.657   6.734  12.249 -0.2095  0.4695 -0.4591
21471SOL    HW165854   6.720   6.681  12.297 -1.7389 -0.7041  0.3576
21471SOL    HW265855   6.611   6.671  12.192 -0.8527  1.2243 -0.7921
21472SOL     OW65856   3.820   5.003   8.937  0.1642  0.2797 -0.2265
21472SOL    HW165857   3.773   4.923   8.961  1.1647 -0.2811 -0.0789
21472SOL    HW265858   3.838   4.993   8.843  1.3564 -0.2709  0.0329
21473SOL     OW65859   7.607   2.638   5.174  0.3206 -0.2735  0.2604
21473SOL    HW165860   7.693   2.603   5.151 -0.5979 -1.9542 -0.8280
21473SOL    HW265861   7.620   2.678   5.260  2.7465  1.8096 -0.9410
21474SOL     OW65862   3.189   0.019   4.879  0.1560  0.1604 -0.8338
21474SOL    HW165863   3.255   0.085   4.903  0.0015  0.3270 -0.8601
21474SOL    HW265864   3.126   0.022   4.951  0.2980 -0.1651 -0.6933
21475SOL     OW65865   6.355   6.954   6.769 -0.4980  0.3668  0.3965
21475SOL    HW165866   6.413   7.001   6.829 -0.0054 -1.6020  1.5387
21475SOL    HW265867   6.376   6.990   6.683  0.5027  1.5724  1.1062
21476SOL     OW65868   6.313   2.644   6.605  0.2475  1.1321 -0.0229
21476SOL    HW165869   6.251   2.602   6.665  0.0666  3.0261  1.1905
21476SOL    HW265870   6.271   2.637   6.519 -0.5218  0.2984  0.4058
21477SOL     OW65871   2.628   3.900  11.229  0.5217  0.2758  0.5967
21477SOL    HW165872   2.631   3.919  11.322  1.2914 -0.4554  0.7298
21477SOL    HW265873   2.632   3.985  11.186 -1.5602  0.7541  1.2340
21478SOL     OW65874   3.077   1.341   3.840 -0.3744 -0.1357 -0.0237
21478SOL    HW165875   3.065   1.381   3.927 -0.5800 -0.7450  0.2290
21478SOL    HW265876   3.166   1.366   3.816 -0.5289  0.5537  0.0912
21479SOL     OW65877   7.553   0.986  12.391  0.0272  0.0728  0.4821
21479SOL    HW165878   7.635   1.031  12.410  0.9526 -0.6200 -1.5857
21479SOL    HW265879   7.492   1.056  12.369  0.8352  0.4744 -0.5646
21480SOL     OW65880   4.182   1.875   8.921 -0.0852  0.3134  0.5550
21480SOL    HW165881   4.207   1.945   8.981  0.6810 -1.2236  2.1181
21480SOL    HW265882   4.125   1.818   8.972 -0.5928 -0.2958 -0.6357
21481SOL     OW65883   7.110   4.551   2.953 -0.0425  0.1610 -0.2655
21481SOL    HW165884   7.092   4.605   3.030  0.6206 -0.5780  0.4318
21481SOL    HW265885   7.148   4.612   2.889 -2.3582  1.1844 -0.7719
21482SOL     OW65886   5.055   5.602  10.128 -0.2633 -0.3460  0.0987
21482SOL    HW165887   4.962   5.578  10.136 -0.1656 -0.5759  0.5554
21482SOL    HW265888   5.098   5.521  10.099 -0.0876 -0.4557  0.6546
21483SOL     OW65889   3.216   0.792   5.186  0.0766  0.3171 -0.0114
21483SOL    HW165890   3.240   0.846   5.110 -1.0928  1.2820  0.2852
21483SOL    HW265891   3.143   0.738   5.155  2.1897 -2.3583 -0.7979
21484SOL     OW65892   7.627   5.318  11.441 -0.0634  0.4004  0.5064
21484SOL    HW165893   7.554   5.260  11.418  0.7382 -1.2331  1.8700
21484SOL    HW265894   7.659   5.350  11.357  0.5440 -2.5271 -0.5111
21485SOL     OW65895   3.726   1.641  10.256  0.6657 -0.0036 -0.0410
21485SOL    HW165896   3.696   1.552  10.238 -0.0508 -0.4336  2.7615
21485SOL    HW265897   3.646   1.689  10.278  1.3533  0.4812  1.5129
21486SOL     OW65898   4.413   1.924  12.228 -0.1385 -0.4173  0.0393
21486SOL    HW165899   4.427   1.907  12.135 -1.2414  0.1621 -0.2485
21486SOL    HW265900   4.416   2.020  12.236 -1.9048 -0.3537  0.2595
21487SOL     OW65901   5.050   5.854   2.126  0.3050  0.0075  0.4983
21487SOL    HW165902   5.067   5.862   2.220  1.4734  0.3129  0.2820
21487SOL    HW265903   5.123   5.900   2.084 -0.4372  0.2714 -0.5596
21488SOL     OW65904   4.782   6.603   4.198  0.2876 -0.3487  0.1390
21488SOL    HW165905   4.747   6.571   4.282 -0.2931  0.1381  0.0855
21488SOL    HW265906   4.856   6.546   4.181  0.0306 -0.8609  0.6762
21489SOL     OW65907   5.951   1.111   9.492 -0.1599  0.2837  0.6244
21489SOL    HW165908   5.890   1.053   9.538 -1.4601  0.9146 -0.2174
21489SOL    HW265909   5.974   1.063   9.412 -0.3731  0.4541  0.4568
21490SOL     OW65910   5.819   0.086   6.567  0.1031  0.4377  0.1146
21490SOL    HW165911   5.806   0.010   6.622 -0.9784  1.9431  2.0544
21490SOL    HW265912   5.848   0.050   6.483  1.2102 -1.9775  1.4227
21491SOL     OW65913   2.298   7.550   8.428  0.0826 -0.5755  0.0464
21491SOL    HW165914   2.296   7.639   8.393  0.3002 -0.7443 -0.4055
21491SOL    HW265915   2.211   7.536   8.465 -0.0786 -0.3131 -0.2294
21492SOL     OW65916   6.177   2.710  12.015  0.4849  0.0801 -0.2108
21492SOL    HW165917   6.137   2.796  12.023 -0.1517 -0.3051  1.0161
21492SOL    HW265918   6.117   2.661  11.957  0.2653  0.1280 -0.0251
21493SOL     OW65919   7.405   6.738  12.281  0.1619  0.1432 -0.1681
21493SOL    HW165920   7.412   6.808  12.347  0.9012 -1.3417  1.4167
21493SOL    HW265921   7.320   6.697  12.298  1.3607 -1.8162  1.6196
21494SOL     OW65922   7.031   3.671   5.738 -0.3980 -0.2167 -0.4385
21494SOL    HW165923   7.115   3.698   5.776 -1.1544  2.0201 -0.2119
21494SOL    HW265924   6.971   3.666   5.813 -0.5160 -1.8104 -0.5976
21495SOL     OW65925   2.990   7.260   1.536  0.1200  0.8260 -0.7245
21495SOL    HW165926   2.900   7.274   1.508 -0.0876  0.6541 -0.1501
21495SOL    HW265927   3.016   7.343   1.575  0.2530  0.9141 -0.9958
21496SOL     OW65928   7.846   2.053   4.798  0.2886 -0.4510  0.0991
21496SOL    HW165929   7.763   2.096   4.818  0.0940 -1.0445  0.6005
21496SOL    HW265930   7.826   1.960   4.801  0.9396 -0.5981  0.0667
21497SOL     OW65931   1.752   4.635   1.244 -1.2020  0.0264  0.1784
21497SOL    HW165932   1.674   4.602   1.199 -0.6695  0.4583 -1.1044
21497SOL    HW265933   1.817   4.646   1.175  0.1355 -0.6669  1.2817
21498SOL     OW65934   1.861   5.060  12.104  0.0475 -0.3641 -0.2516
21498SOL    HW165935   1.829   5.136  12.055  0.7004 -0.0181 -0.1576
21498SOL    HW265936   1.905   5.006  12.038  2.0607  0.7244  0.1099
21499SOL     OW65937   0.343   2.690   9.084 -0.3152  0.3434 -0.4133
21499SOL    HW165938   0.436   2.671   9.096 -0.5746 -1.4226 -0.9190
21499SOL    HW265939   0.305   2.683   9.172  0.0869  1.5646 -0.1258
21500SOL     OW65940   3.386   7.421   4.239  0.1261 -0.0061  0.1657
21500SOL    HW165941   3.414   7.510   4.261 -0.1932 -0.2532  1.7098
21500SOL    HW265942   3.339   7.430   4.156  1.0967  1.0703 -0.2802
21501SOL     OW65943   3.909   2.769   9.129 -0.2971 -0.7843  0.3220
21501SOL    HW165944   3.867   2.794   9.046  0.5524  1.0747  0.3945
21501SOL    HW265945   3.977   2.708   9.103 -1.8430 -2.4632  0.0073
21502SOL     OW65946   5.025   5.534   4.777 -0.1781  0.1224  0.1203
21502SOL    HW165947   5.069   5.508   4.858 -0.8827 -0.4838  0.3130
21502SOL    HW265948   4.932   5.525   4.796 -0.3508  0.0931 -0.7253
21503SOL     OW65949   5.583   0.987   2.634  0.2090  0.1047  0.6017
21503SOL    HW165950   5.619   1.075   2.641  1.4302 -0.4313  1.3875
21503SOL    HW265951   5.637   0.944   2.568  1.8027 -1.0439  2.5680
21504SOL     OW65952   1.422   6.883   6.625 -0.1033 -0.0320 -0.2632
21504SOL    HW165953   1.383   6.888   6.712 -0.2583  0.8909 -0.3733
21504SOL    HW265954   1.463   6.797   6.622 -0.7898 -0.3943  0.4241
21505SOL     OW65955   7.371   6.491   6.323 -0.0246  0.1943 -1.0319
21505SOL    HW165956   7.422   6.518   6.400 -1.6870 -1.4799  0.7847
21505SOL    HW265957   7.378   6.395   6.324 -1.7113  0.0450 -1.7894
21506SOL     OW65958   0.126   7.676  11.265  0.2078 -0.0567 -0.5350
21506SOL    HW165959   0.067   7.607  11.233 -0.5770  1.0613 -1.5995
21506SOL    HW265960   0.175   7.702  11.187  0.9669  0.1414  0.0070
21507SOL     OW65961   6.353   3.136   5.487 -0.0185  0.0238 -0.5965
21507SOL    HW165962   6.278   3.170   5.536  1.4879  0.6769  1.3657
21507SOL    HW265963   6.380   3.209   5.431 -0.1837  0.1379 -0.5295
21508SOL     OW65964   4.809   2.644  11.204  0.0540  0.4023  0.3001
21508SOL    HW165965   4.892   2.683  11.177 -0.6065  1.9520  0.3396
21508SOL    HW265966   4.831   2.585  11.275  1.1122  0.8935  0.3959
21509SOL     OW65967   5.379   7.569   0.259  0.2667  0.4090  0.3928
21509SOL    HW165968   5.368   7.661   0.235 -0.7025  0.3620  0.6267
21509SOL    HW265969   5.295   7.529   0.239  0.3466 -0.2128  1.2616
21510SOL     OW65970   0.818   0.903  12.214  0.3768 -0.0472  0.8033
21510SOL    HW165971   0.815   0.808  12.215 -0.6600 -0.0365  0.3186
21510SOL    HW265972   0.842   0.926  12.124  3.1540  0.1481  1.5038
21511SOL     OW65973   6.175   2.806   7.938  0.3894  0.0951 -0.0124
21511SOL    HW165974   6.085   2.798   7.908  0.1479 -1.7290  1.0529
21511SOL    HW265975   6.168   2.856   8.020  0.1652 -1.1186  0.7297
21512SOL     OW65976   3.922   0.790   8.205  0.0342  0.1956 -0.3375
21512SOL    HW165977   3.973   0.747   8.137  0.1617  0.5553 -0.4696
21512SOL    HW265978   3.986   0.811   8.274 -0.0411  0.1089 -0.2396
21513SOL     OW65979   1.672   5.575   5.061 -0.0792  0.3907  0.5003
21513SOL    HW165980   1.738   5.515   5.097 -0.5875 -0.0550  0.7040
21513SOL    HW265981   1.608   5.518   5.018  0.3582  0.8972 -0.8717
21514SOL     OW65982   2.780   5.953   9.286 -0.3949  0.0589  1.2373
21514SOL    HW165983   2.767   6.048   9.290  0.2126  0.1541  1.0043
21514SOL    HW265984   2.830   5.932   9.365  0.6884  0.1408  0.5892
21515SOL     OW65985   7.925   2.083   1.601 -0.2329  0.3336  0.3740
21515SOL    HW165986   8.010   2.078   1.557 -0.4819  0.2161 -0.0979
21515SOL    HW265987   7.867   2.125   1.537 -0.1110  2.0683  1.3327
21516SOL     OW65988   2.952   0.701   3.833 -0.5938  0.3227 -0.1088
21516SOL    HW165989   2.990   0.669   3.751  2.0753 -1.1981  1.5464
21516SOL    HW265990   2.867   0.657   3.839 -0.5673 -0.0188 -1.7188
21517SOL     OW65991   0.634   1.413   2.370  0.2888  0.0773 -0.1977
21517SOL    HW165992   0.694   1.350   2.330  3.6967  2.8117  0.1238
21517SOL    HW265993   0.609   1.372   2.453  2.5959 -0.7767  0.1458
21518SOL     OW65994   4.171   4.228   9.708 -0.1950 -1.0187  0.2043
21518SOL    HW165995   4.136   4.284   9.639  1.4375 -1.1520 -0.7586
21518SOL    HW265996   4.103   4.161   9.721 -0.9385 -0.4364 -0.5910
21519SOL     OW65997   0.719   3.147  11.952  0.1382  0.2171 -0.4979
21519SOL    HW165998   0.692   3.175  11.865  0.3026  0.5971 -0.4278
21519SOL    HW265999   0.773   3.218  11.985 -0.3772  0.3297  0.1395
21520SOL     OW66000   7.099   6.173   2.047 -0.2406 -0.1925 -0.1377
21520SOL    HW166001   7.024   6.207   2.096 -0.2432 -0.0061 -0.2709
21520SOL    HW266002   7.156   6.249   2.034 -0.3354 -0.1953 -0.6009
21521SOL     OW66003   5.693   3.769   9.130 -0.2036 -0.5186  0.1813
21521SOL    HW166004   5.605   3.805   9.125  0.9528  2.4982 -1.6990
21521SOL    HW266005   5.735   3.815   9.203 -0.0611 -1.7260  0.8907
21522SOL     OW66006   0.914   5.761   6.512 -0.2628 -0.1669 -0.0390
21522SOL    HW166007   0.893   5.753   6.419 -1.4641  0.9443  0.1143
21522SOL    HW266008   0.864   5.691   6.554 -0.7335  0.1268 -0.1002
21523SOL     OW66009   3.017   1.622   5.245  0.0270  0.6552 -0.2419
21523SOL    HW166010   3.092   1.578   5.203  0.4333  1.6850 -0.6262
21523SOL    HW266011   3.043   1.633   5.336 -0.2768 -0.3154 -0.0251
21524SOL     OW66012   6.688   3.521   0.645 -0.5851  0.1323  0.1906
21524SOL    HW166013   6.593   3.509   0.640 -0.6144 -0.8680  2.1648
21524SOL    HW266014   6.723   3.431   0.650  0.4484  0.4966 -0.1879
21525SOL     OW66015   4.886   5.333   9.845  0.3218 -0.1358 -0.4958
21525SOL    HW166016   4.833   5.391   9.899 -1.3631 -1.4564 -0.6506
21525SOL    HW266017   4.932   5.391   9.784 -2.0541  0.9994 -1.3153
21526SOL     OW66018   0.412   2.393   2.372 -0.1226 -0.2269 -0.0641
21526SOL    HW166019   0.500   2.429   2.359 -0.1879 -0.5815 -1.5786
21526SOL    HW266020   0.426   2.299   2.384 -0.3641 -0.4286 -1.2963
21527SOL     OW66021   4.743   2.491   4.938 -0.1059 -0.2327 -0.0330
21527SOL    HW166022   4.707   2.562   4.884 -0.2502  1.0849  1.7039
21527SOL    HW266023   4.666   2.449   4.977  0.0598  0.4421  1.0707
21528SOL     OW66024   4.574   0.939   1.174 -0.3256  0.2272 -0.4152
21528SOL    HW166025   4.494   0.887   1.176 -0.7150  0.8313  0.3430
21528SOL    HW266026   4.618   0.913   1.094 -2.0775  1.0426 -1.7133
21529SOL     OW66027   2.604   2.704   4.618  0.2761 -0.1734  0.0087
21529SOL    HW166028   2.530   2.642   4.617  0.9150 -0.9652  0.1335
21529SOL    HW266029   2.605   2.741   4.530 -1.3692  1.2188  0.5196
21530SOL     OW66030   1.144   0.892   5.950  0.2497  0.6435 -0.3468
21530SOL    HW166031   1.229   0.916   5.913  0.5720  0.9287  0.5688
21530SOL    HW266032   1.164   0.840   6.028 -0.3641  2.0788  0.8141
21531SOL     OW66033   1.983   6.451   4.505  0.1210  0.4209 -0.3505
21531SOL    HW166034   2.040   6.516   4.466  0.8694 -0.8919 -1.5345
21531SOL    HW266035   2.030   6.421   4.583  0.0085  0.9178 -0.0879
21532SOL     OW66036   4.614   3.476   1.421  0.1394  0.4533 -0.3066
21532SOL    HW166037   4.684   3.412   1.423  1.1255  1.4141 -1.7722
21532SOL    HW266038   4.583   3.482   1.511  0.3197 -1.7167 -0.0646
21533SOL     OW66039   1.772   7.056   5.251  0.2209  0.0501 -0.1743
21533SOL    HW166040   1.845   7.028   5.306 -0.5139 -2.0076 -0.1314
21533SOL    HW266041   1.709   7.094   5.312  0.5395  0.2897  0.0114
21534SOL     OW66042   3.244   1.098  11.557  0.0951 -0.1162 -0.2873
21534SOL    HW166043   3.180   1.064  11.494  0.1157  2.2936 -1.7432
21534SOL    HW266044   3.257   1.026  11.619 -1.8393 -1.7087 -1.5828
21535SOL     OW66045   5.211   6.470   7.684 -1.0520 -0.3056 -0.0022
21535SOL    HW166046   5.173   6.383   7.697 -0.9621 -0.1438  1.4411
21535SOL    HW266047   5.224   6.476   7.589 -1.1865 -1.8066 -0.1400
21536SOL     OW66048   7.450   2.437   3.263 -0.3468 -0.1795 -0.3527
21536SOL    HW166049   7.404   2.390   3.194  1.6435  1.2143 -2.8101
21536SOL    HW266050   7.499   2.370   3.311 -2.3786 -1.2664  0.3087
21537SOL     OW66051   1.369   4.639   4.412 -0.0451  1.0403 -0.4290
21537SOL    HW166052   1.414   4.642   4.328 -1.1547  0.4560 -1.0765
21537SOL    HW266053   1.389   4.724   4.453  1.4031  0.8950 -0.7806
21538SOL     OW66054   2.905   7.284   6.579 -0.1920 -0.0866  0.7553
21538SOL    HW166055   2.822   7.251   6.613 -0.3817 -0.6656 -0.2128
21538SOL    HW266056   2.931   7.353   6.639 -1.1279 -0.2400  1.3446
21539SOL     OW66057   1.555   2.227   7.741 -0.2040  0.2200 -0.1348
21539SOL    HW166058   1.478   2.274   7.708  0.7816  0.4853 -2.2389
21539SOL    HW266059   1.566   2.154   7.681  1.5309  0.5540 -0.2774
21540SOL     OW66060   0.013   2.061   5.508  0.0642  0.2179  0.0362
21540SOL    HW166061  -0.078   2.048   5.480 -1.3262 -2.5738  4.7010
21540SOL    HW266062   0.057   1.979   5.487  0.2984 -0.0160  1.3084
21541SOL     OW66063   5.264   6.797   7.393 -0.4470  0.2447  0.2627
21541SOL    HW166064   5.348   6.826   7.427 -0.6197  3.1109 -1.4151
21541SOL    HW266065   5.287   6.731   7.327  0.1785 -1.5171  2.1498
21542SOL     OW66066   2.838   4.509   5.146 -0.5226  0.5415 -0.2377
21542SOL    HW166067   2.856   4.603   5.146 -1.2963  0.7752  2.4317
21542SOL    HW266068   2.784   4.494   5.068 -1.5020  2.5642  0.0034
21543SOL     OW66069   2.379   7.773  10.191  0.3421 -0.2408  0.3612
21543SOL    HW166070   2.346   7.786  10.279  0.4796  1.7896  0.1590
21543SOL    HW266071   2.465   7.815  10.191  1.0126 -1.5336 -0.3502
21544SOL     OW66072   1.921   5.479   9.534 -0.6222  0.4810  0.6382
21544SOL    HW166073   1.850   5.455   9.474 -1.6873  0.2127  1.9510
21544SOL    HW266074   2.001   5.466   9.484 -1.4698  0.0017 -0.6249
21545SOL     OW66075   0.434   3.606   3.773 -0.1299 -0.2952 -0.3190
21545SOL    HW166076   0.363   3.574   3.717 -0.1264  0.7433 -0.9462
21545SOL    HW266077   0.466   3.684   3.728 -1.7567  2.0727  2.3014
21546SOL     OW66078   3.570   0.539   3.155  0.2910  0.1562  0.3523
21546SOL    HW166079   3.525   0.611   3.200 -1.0507 -0.4409  0.0141
21546SOL    HW266080   3.588   0.475   3.224  1.7174  0.8953  0.7013
21547SOL     OW66081   4.748   7.334   7.634  0.1856  0.4596 -0.0132
21547SOL    HW166082   4.691   7.267   7.670  0.8471 -0.7102 -1.0456
21547SOL    HW266083   4.833   7.318   7.674  0.1659  1.1946  0.3354
21548SOL     OW66084   0.774   5.860   9.937  0.3332  0.3406 -0.0116
21548SOL    HW166085   0.712   5.885  10.005 -0.6986 -0.3810 -0.6533
21548SOL    HW266086   0.860   5.881   9.973 -0.0001 -1.9258  2.4209
21549SOL     OW66087   3.704   0.279   0.225  0.3386  0.1047  0.0621
21549SOL    HW166088   3.724   0.330   0.304  1.4911  0.1729 -0.2560
21549SOL    HW266089   3.626   0.322   0.188 -0.0584  0.2277  1.0206
21550SOL     OW66090   1.449   1.924   8.680  0.0127  0.6315 -0.6862
21550SOL    HW166091   1.514   1.941   8.611  0.9923 -2.3210 -0.6686
21550SOL    HW266092   1.483   1.970   8.757  1.7255 -0.1969 -0.8918
21551SOL     OW66093   4.452   1.107   5.156  0.5938  0.1787  1.1162
21551SOL    HW166094   4.525   1.050   5.131  1.0680  0.4596  1.8273
21551SOL    HW266095   4.465   1.123   5.249 -0.3860  0.2285  1.2549
21552SOL     OW66096   0.843   7.278  11.875  0.6102  0.0892 -0.4675
21552SOL    HW166097   0.844   7.346  11.943  2.1539 -2.2281  2.0583
21552SOL    HW266098   0.780   7.214  11.907  1.9900 -1.4695 -0.7239
21553SOL     OW66099   3.469   0.645   5.160 -0.2023 -0.2825  0.3344
21553SOL    HW166100   3.521   0.652   5.080 -0.0119 -2.9578  0.1549
21553SOL    HW266101   3.417   0.726   5.161  2.8291  1.8457 -0.2091
21554SOL     OW66102   0.891   7.819   0.185  0.0396 -0.7517 -0.2599
21554SOL    HW166103   0.858   7.734   0.215 -0.6687 -1.3104 -2.4704
21554SOL    HW266104   0.920   7.863   0.266  1.0553 -3.3169  0.8814
21555SOL     OW66105   6.676   6.931   4.822 -0.0613 -0.2873  0.2056
21555SOL    HW166106   6.696   7.010   4.873  2.1398 -1.0471  0.6084
21555SOL    HW266107   6.662   6.963   4.733  1.1575  0.5567  0.2897
21556SOL     OW66108   0.058   2.807   2.101  0.1694 -0.1730 -0.3777
21556SOL    HW166109   0.081   2.810   2.008 -0.1434 -0.7701 -0.4811
21556SOL    HW266110  -0.026   2.761   2.104 -0.4121  0.8688  0.1015
21557SOL     OW66111   4.570   3.776   0.978 -0.1612  0.1183 -0.0910
21557SOL    HW166112   4.643   3.837   0.970  0.1740 -0.4183 -1.2443
21557SOL    HW266113   4.564   3.759   1.072  0.6705  0.8042  0.0985
21558SOL     OW66114   3.511   3.221   8.944 -0.0267  0.1514  0.2523
21558SOL    HW166115   3.462   3.188   8.868  0.1515  0.6853 -0.0997
21558SOL    HW266116   3.452   3.207   9.018 -0.1061 -0.6079  0.0552
21559SOL     OW66117   2.921   5.997   3.451  0.1681 -0.0767  0.6895
21559SOL    HW166118   2.976   6.035   3.382  0.2861 -2.7540 -0.8194
21559SOL    HW266119   2.978   5.935   3.495 -0.5053  0.1382  1.9060
21560SOL     OW66120   4.073   0.676   3.752 -0.4986  0.3005 -0.8852
21560SOL    HW166121   3.998   0.653   3.698  0.4493 -2.3509 -1.2508
21560SOL    HW266122   4.039   0.680   3.841 -1.6079  2.2282 -1.3632
21561SOL     OW66123   4.235   0.347   9.610 -0.4777 -0.2551  0.2514
21561SOL    HW166124   4.245   0.295   9.531 -0.2918 -0.5896  0.4954
21561SOL    HW266125   4.250   0.437   9.581 -1.3912 -0.2641 -0.2824
21562SOL     OW66126   5.977   7.174  11.043  0.5467  0.0913  0.2176
21562SOL    HW166127   5.924   7.100  11.014 -0.1574  1.2097 -1.4849
21562SOL    HW266128   5.915   7.246  11.052  1.6422  1.2939 -1.3082
21563SOL     OW66129   4.773   7.312   3.035 -0.0525  0.1179 -0.8142
21563SOL    HW166130   4.753   7.300   3.128 -0.2520  1.9687 -0.5850
21563SOL    HW266131   4.831   7.238   3.013 -0.5527 -0.7306  0.5838
21564SOL     OW66132   1.776   2.162  10.804  0.3194  0.1379  0.1648
21564SOL    HW166133   1.827   2.086  10.833  0.5115 -0.1956 -1.0137
21564SOL    HW266134   1.691   2.126  10.779  0.3853  0.3196 -0.3292
21565SOL     OW66135   2.245   6.394   6.733  0.0775 -0.3019 -0.8731
21565SOL    HW166136   2.300   6.363   6.662  1.6497  0.7057 -0.1472
21565SOL    HW266137   2.306   6.418   6.802 -1.3975 -1.4150  0.9253
21566SOL     OW66138   1.548   1.433   6.558 -0.4861 -0.5580  0.3093
21566SOL    HW166139   1.478   1.368   6.563  0.4501 -1.5297  1.4856
21566SOL    HW266140   1.628   1.385   6.582  0.2572  0.9789  1.1041
21567SOL     OW66141   5.280   4.790   6.728 -0.1473  0.3009  0.4335
21567SOL    HW166142   5.197   4.790   6.775 -1.4122 -0.2675 -1.6664
21567SOL    HW266143   5.256   4.801   6.636  2.1076  0.1406 -0.2401
21568SOL     OW66144   0.366   0.824   2.142 -0.0798  0.2231  0.3684
21568SOL    HW166145   0.389   0.752   2.201  0.2118  1.1795  1.4679
21568SOL    HW266146   0.271   0.818   2.134 -0.3256  0.9318  2.1532
21569SOL     OW66147   6.154   2.446   2.981 -0.3243  0.1891 -0.5445
21569SOL    HW166148   6.190   2.510   2.920  2.0120 -1.9186 -1.5383
21569SOL    HW266149   6.122   2.375   2.925  1.6034 -1.6613  0.5284
21570SOL     OW66150   6.338   1.501   8.316 -0.3611 -0.0117  0.4110
21570SOL    HW166151   6.293   1.417   8.325 -1.2176  0.2011 -1.5177
21570SOL    HW266152   6.415   1.482   8.262 -0.0434  0.2817  0.7491
21571SOL     OW66153   2.185   1.291  11.591  0.0581  0.0223 -0.0092
21571SOL    HW166154   2.099   1.284  11.549 -0.0373 -0.0300  0.1926
21571SOL    HW266155   2.175   1.242  11.673 -0.1873  1.3256  0.7536
21572SOL     OW66156   5.327   6.859   3.586  0.6514 -0.2288  0.4589
21572SOL    HW166157   5.273   6.830   3.660 -0.3810  0.0134 -0.1842
21572SOL    HW266158   5.344   6.780   3.536 -0.0631 -0.1317  0.0551
21573SOL     OW66159   2.392   5.699   6.404 -0.4175 -0.0441 -0.3205
21573SOL    HW166160   2.440   5.647   6.339 -1.7401  0.4819 -1.7848
21573SOL    HW266161   2.310   5.652   6.416 -0.0435 -0.3454  1.3283
21574SOL     OW66162   4.893   5.983  11.364 -0.2018  0.4950 -0.6581
21574SOL    HW166163   4.812   6.028  11.390 -1.1710 -1.4472 -0.0561
21574SOL    HW266164   4.867   5.929  11.289  0.3992 -0.4725 -0.1931
21575SOL     OW66165   0.469   6.020   2.794  0.5917 -0.0817  0.4531
21575SOL    HW166166   0.436   6.106   2.821 -0.8153 -0.2017 -0.7746
21575SOL    HW266167   0.398   5.983   2.742  2.6960 -0.3453 -2.4131
21576SOL     OW66168   1.292   1.138   2.225 -0.0358  0.4822  0.2385
21576SOL    HW166169   1.280   1.098   2.139 -0.1560 -0.8858  0.8646
21576SOL    HW266170   1.385   1.124   2.246 -0.1004  0.4465  0.5106
21577SOL     OW66171   3.011   7.295   0.486 -0.3647 -0.2607 -0.0807
21577SOL    HW166172   3.022   7.274   0.579 -2.8584 -0.3887  0.2639
21577SOL    HW266173   3.099   7.315   0.455  0.7789 -1.8776  1.8877
21578SOL     OW66174   3.685   5.620   4.841 -0.0947  0.6067  0.2808
21578SOL    HW166175   3.671   5.536   4.798 -0.1413  0.4663  0.5724
21578SOL    HW266176   3.598   5.660   4.843 -0.7077 -0.6707  2.9518
21579SOL     OW66177   7.808   7.395   3.826 -0.2573  0.0832  1.0891
21579SOL    HW166178   7.858   7.477   3.824 -2.4305  1.5009 -0.9714
21579SOL    HW266179   7.865   7.331   3.784  1.2738  0.6051  2.2505
21580SOL     OW66180   7.661   3.265   0.669 -0.0323  0.0648  0.1369
21580SOL    HW166181   7.596   3.326   0.703 -2.3620 -2.5086  0.6847
21580SOL    HW266182   7.678   3.295   0.579 -1.7324  1.0286  0.1010
21581SOL     OW66183   5.355   6.610   7.201 -0.3521  0.1109 -0.2079
21581SOL    HW166184   5.374   6.543   7.135  1.2141  0.3523 -0.0354
21581SOL    HW266185   5.361   6.693   7.153 -1.7827  0.1869 -0.3067
21582SOL     OW66186   0.184   5.711  10.439 -0.0482 -0.3243  0.1734
21582SOL    HW166187   0.275   5.683  10.446 -0.2170 -1.2352 -0.9718
21582SOL    HW266188   0.181   5.796  10.484  1.0774 -0.8676  1.3266
21583SOL     OW66189   0.003   3.250   6.918  1.0136 -0.7184  0.0504
21583SOL    HW166190   0.012   3.341   6.890  1.2480  0.2706  3.0320
21583SOL    HW266191  -0.066   3.215   6.862 -0.5107  1.8945  0.1040
21584SOL     OW66192   7.593   5.191  12.380 -0.1653 -0.0297  0.6390
21584SOL    HW166193   7.500   5.179  12.401 -0.2253  1.0841  1.1229
21584SOL    HW266194   7.592   5.240  12.298 -0.0310  0.5719  0.9883
21585SOL     OW66195   7.028   2.379   0.147  0.2431 -0.0868 -0.4437
21585SOL    HW166196   7.034   2.289   0.179  1.4267  0.0946 -0.1182
21585SOL    HW266197   6.944   2.382   0.101 -1.0290 -0.6410  1.6982
21586SOL     OW66198   4.268   0.286  10.035  0.4548  0.0700 -0.5198
21586SOL    HW166199   4.294   0.197  10.056 -2.6761 -1.3674 -2.0171
21586SOL    HW266200   4.272   0.333  10.118 -0.8019 -2.3217  1.0034
21587SOL     OW66201   4.238   2.181   2.558 -0.0802 -0.3779 -0.2498
21587SOL    HW166202   4.220   2.087   2.566 -0.5416 -0.1539  2.2572
21587SOL    HW266203   4.155   2.218   2.527 -1.0236 -0.4680  1.9998
21588SOL     OW66204   3.930   3.370   0.252 -0.1889 -0.4433  0.0540
21588SOL    HW166205   3.854   3.350   0.307 -0.7132 -0.6372 -0.7215
21588SOL    HW266206   3.967   3.449   0.290 -0.5414 -0.5739  0.6863
21589SOL     OW66207   7.019   5.161   3.327  0.1384 -0.7073 -0.2609
21589SOL    HW166208   7.001   5.168   3.420  1.5682 -0.2990  0.0087
21589SOL    HW266209   7.097   5.216   3.313  0.7813 -1.8529 -1.4198
21590SOL     OW66210   2.666   4.367   8.010  0.0922  0.4748 -0.2001
21590SOL    HW166211   2.700   4.352   7.922  1.2311  1.9870 -0.0669
21590SOL    HW266212   2.697   4.292   8.061 -0.6882 -0.4803 -1.0793
21591SOL     OW66213   7.609   3.568   0.951 -0.2805 -0.5794  0.3835
21591SOL    HW166214   7.622   3.657   0.983  0.8902 -0.3883 -0.5272
21591SOL    HW266215   7.677   3.557   0.884 -0.9530 -1.8628 -0.1200
21592SOL     OW66216   5.826   0.792  11.502 -0.0084  0.6465  0.1091
21592SOL    HW166217   5.828   0.885  11.481  0.2118  0.7065  0.3835
21592SOL    HW266218   5.734   0.767  11.494  0.0592  0.6702 -0.8784
21593SOL     OW66219   6.984   7.018   2.993  0.4483  0.1402  0.2668
21593SOL    HW166220   6.975   6.953   3.064  0.3641 -0.4281 -0.2522
21593SOL    HW266221   6.962   6.969   2.914  2.0946  0.3328 -0.3445
21594SOL     OW66222   1.045   6.160   7.623 -0.3154  0.4452  0.4252
21594SOL    HW166223   1.072   6.160   7.531  0.0097  1.2188  0.5196
21594SOL    HW266224   1.048   6.068   7.648 -0.7853  0.1790 -0.4502
21595SOL     OW66225   3.432   3.027   2.528  0.2630  0.5416 -0.2370
21595SOL    HW166226   3.342   3.057   2.519 -0.3921 -0.6577  1.6176
21595SOL    HW266227   3.470   3.084   2.594  0.3450  0.0295  0.1642
21596SOL     OW66228   5.280   2.027   7.806 -0.0610  0.1729 -0.7004
21596SOL    HW166229   5.214   2.012   7.739  0.2004  1.6971 -1.3368
21596SOL    HW266230   5.337   2.096   7.770 -0.5856  1.8878  1.5040
21597SOL     OW66231   1.297   3.250   1.631 -0.0945  0.1283  0.1582
21597SOL    HW166232   1.251   3.332   1.613  1.1961  0.5907 -1.2476
21597SOL    HW266233   1.336   3.264   1.717  1.7477  1.8472 -0.8561
21598SOL     OW66234   7.465   0.616   9.994  0.0725 -0.8860 -0.2033
21598SOL    HW166235   7.509   0.691   9.956 -1.6095  0.9994  1.3701
21598SOL    HW266236   7.425   0.571   9.919  0.0161  0.5434 -1.0621
21599SOL     OW66237   1.909   5.356   8.858  0.8427  0.2557 -0.6906
21599SOL    HW166238   1.910   5.401   8.942  0.2261 -0.4922 -0.2693
21599SOL    HW266239   1.940   5.268   8.878 -0.1247 -0.1832 -1.0883
21600SOL     OW66240   5.946   0.441  11.900  0.7759  0.2382  0.1701
21600SOL    HW166241   6.041   0.431  11.895  0.8164  0.6622  0.0268
21600SOL    HW266242   5.925   0.497  11.826  0.5799  1.3202  1.0334
21601SOL     OW66243   0.134   1.672  11.694  0.1438 -0.4882 -0.0728
21601SOL    HW166244   0.102   1.624  11.617 -3.1218 -0.3152  1.0262
21601SOL    HW266245   0.135   1.607  11.764  0.2125  0.0090  0.3935
21602SOL     OW66246   1.241   4.428   4.514 -1.1560 -0.0276  0.6762
21602SOL    HW166247   1.192   4.467   4.586  1.4135  1.8819  1.5170
21602SOL    HW266248   1.305   4.494   4.489 -0.1023 -1.7300 -1.4802
21603SOL     OW66249   1.725   7.632   8.132  0.2893 -0.5154 -0.0513
21603SOL    HW166250   1.665   7.692   8.088 -1.0746 -1.9614 -0.2719
21603SOL    HW266251   1.791   7.610   8.067 -0.2069 -0.6030 -0.5256
21604SOL     OW66252   0.503   4.136   3.493  0.1918  0.7023  0.3392
21604SOL    HW166253   0.524   4.064   3.433 -0.6722  0.5058  0.2549
21604SOL    HW266254   0.431   4.182   3.450 -0.7621  0.2868  1.4268
21605SOL     OW66255   0.455   2.666   9.511  0.3152 -0.4262  0.7113
21605SOL    HW166256   0.459   2.760   9.492 -0.5757 -0.5161  0.0087
21605SOL    HW266257   0.538   2.631   9.478  0.1878 -0.0518 -0.0334
21606SOL     OW66258   7.293   5.250  10.984  0.3718 -0.3334  0.5498
21606SOL    HW166259   7.283   5.249  10.889  0.0545 -3.6716  0.4971
21606SOL    HW266260   7.212   5.290  11.015 -0.4895 -1.1171 -0.5816
21607SOL     OW66261   2.229   5.814   5.307 -0.0866 -0.5344 -0.0289
21607SOL    HW166262   2.304   5.872   5.320 -1.8848  1.8100  0.6539
21607SOL    HW266263   2.223   5.763   5.388 -1.4853  2.1980  1.7839
21608SOL     OW66264   0.665   6.206   7.627  0.2594  0.0813 -0.3480
21608SOL    HW166265   0.579   6.246   7.634 -0.0478 -0.6381  0.1527
21608SOL    HW266266   0.655   6.141   7.557 -0.0611 -1.0930  0.7583
21609SOL     OW66267   2.971   2.187   6.723  0.4087  0.0444  0.4507
21609SOL    HW166268   2.878   2.192   6.746  0.4570 -0.4658  0.7738
21609SOL    HW266269   2.984   2.258   6.660  0.7544  2.9550  3.5451
21610SOL     OW66270   0.457   1.090   8.000  0.9607  0.2146 -0.0564
21610SOL    HW166271   0.511   1.165   7.975  0.1384  0.9212  0.2257
21610SOL    HW266272   0.384   1.091   7.938  0.4095  0.2712  0.5734
21611SOL     OW66273   1.529   0.225  11.355  0.5516  0.0108  0.4710
21611SOL    HW166274   1.453   0.196  11.404 -0.0471  0.5391 -0.1270
21611SOL    HW266275   1.561   0.146  11.311 -0.6524  0.0783 -0.5941
21612SOL     OW66276   0.692   1.420   2.779  0.5112 -0.1187  0.5474
21612SOL    HW166277   0.766   1.371   2.814  2.4636  2.6472  0.6630
21612SOL    HW266278   0.666   1.372   2.700  2.7077 -0.9878  0.2841
21613SOL     OW66279   1.268   7.096   9.816  0.6997 -0.4552  0.3279
21613SOL    HW166280   1.175   7.088   9.838  0.7016 -0.4360  0.3425
21613SOL    HW266281   1.286   7.019   9.762  0.1474  0.6483 -1.5108
21614SOL     OW66282   6.215   6.922   5.221 -0.4721 -0.3303  0.0421
21614SOL    HW166283   6.179   6.882   5.300  1.2258  0.4696  1.2783
21614SOL    HW266284   6.302   6.882   5.211 -0.2847  0.2710 -0.8659
21615SOL     OW66285   0.608   3.288   7.506 -0.6878  0.6011  0.4925
21615SOL    HW166286   0.604   3.333   7.422  0.4454 -0.3053 -0.0765
21615SOL    HW266287   0.675   3.336   7.555  0.8400 -0.6345 -0.2755
21616SOL     OW66288   0.551   0.289   0.251  0.0813  0.3789 -0.1764
21616SOL    HW166289   0.476   0.256   0.301  0.6992  0.3814  0.7740
21616SOL    HW266290   0.550   0.383   0.268  0.2852  0.3800 -0.1760
21617SOL     OW66291   5.942   5.537   6.868 -0.2213 -0.1011 -0.1025
21617SOL    HW166292   5.872   5.474   6.883 -0.8435  0.2758 -1.3016
21617SOL    HW266293   6.019   5.484   6.849 -0.6699 -0.5139 -0.7992
21618SOL     OW66294   2.917   4.644  11.130 -0.3852 -0.5345 -0.0194
21618SOL    HW166295   2.944   4.554  11.113 -0.6050 -1.1615  2.6039
21618SOL    HW266296   2.829   4.637  11.167  0.3952  0.4896  2.2651
21619SOL     OW66297   7.707   3.220   2.523  0.3919 -0.4317  0.3770
21619SOL    HW166298   7.742   3.132   2.533  0.2691 -0.5992 -0.5861
21619SOL    HW266299   7.772   3.267   2.471  0.6162  0.1623  1.1566
21620SOL     OW66300   2.581   6.406  11.510 -0.3468 -0.0042  0.0897
21620SOL    HW166301   2.578   6.501  11.524  0.8957  0.1260 -0.4219
21620SOL    HW266302   2.563   6.395  11.417 -0.8925 -0.3121  0.2275
21621SOL     OW66303   7.892   4.252   1.801 -0.2483  0.2025  0.3166
21621SOL    HW166304   7.864   4.164   1.777  0.6385  0.7779 -3.6026
21621SOL    HW266305   7.818   4.308   1.779 -0.2054  0.6176  1.1847
21622SOL     OW66306   1.270   4.683   9.702 -0.6328 -0.0983 -0.1496
21622SOL    HW166307   1.245   4.679   9.795 -0.5579 -2.0829 -0.1673
21622SOL    HW266308   1.206   4.743   9.663 -0.7902  0.6158  1.1375
21623SOL     OW66309   3.521   0.113  11.580  0.3084 -0.3018 -0.0219
21623SOL    HW166310   3.546   0.036  11.632  3.8933 -0.6554 -1.9392
21623SOL    HW266311   3.510   0.079  11.491  0.5146  1.1849 -0.6466
21624SOL     OW66312   5.601   4.683   3.616 -0.1343  0.1674 -0.0705
21624SOL    HW166313   5.531   4.658   3.676  0.3352  2.3701  1.5104
21624SOL    HW266314   5.588   4.777   3.601  0.3382 -0.1102 -2.7293
21625SOL     OW66315   1.697   2.593   6.109 -0.0559  0.2252 -0.0268
21625SOL    HW166316   1.755   2.517   6.099 -1.4921 -0.8437 -0.4977
21625SOL    HW266317   1.751   2.657   6.156  1.1321 -1.1478  0.5899
21626SOL     OW66318   7.653   3.953  10.528  0.5592  0.4328 -0.0107
21626SOL    HW166319   7.688   4.042  10.526 -0.6539  0.9253 -0.1028
21626SOL    HW266320   7.603   3.949  10.610  2.6090 -0.9832  1.2761
21627SOL     OW66321   6.607   6.276  11.178 -0.2998  0.6531  0.0886
21627SOL    HW166322   6.593   6.316  11.092  1.1776 -0.7756 -0.8835
21627SOL    HW266323   6.702   6.282  11.192 -0.2557 -0.9139  0.6914
21628SOL     OW66324   1.833   3.367   1.623 -0.1627  0.3199  0.1804
21628SOL    HW166325   1.838   3.411   1.538 -0.3381 -1.3017 -0.7009
21628SOL    HW266326   1.862   3.433   1.686 -2.2606  2.3564 -0.8221
21629SOL     OW66327   2.406   5.937   7.429  0.1301  0.7078  0.1992
21629SOL    HW166328   2.385   5.891   7.348  0.8434  0.6591  0.0351
21629SOL    HW266329   2.361   6.021   7.422 -1.5772 -0.1079  0.7035
21630SOL     OW66330   6.493   1.054   7.679  0.2098 -0.1914  0.7297
21630SOL    HW166331   6.579   1.085   7.650 -0.9367  4.2062  1.3288
21630SOL    HW266332   6.490   1.074   7.772 -1.6384  0.2737  0.6060
21631SOL     OW66333   1.098   1.250   1.483  0.1534 -0.0840 -0.0313
21631SOL    HW166334   1.013   1.230   1.522  0.5428  1.2152  1.6218
21631SOL    HW266335   1.161   1.200   1.535  0.5210 -0.0109 -0.3977
21632SOL     OW66336   3.602   4.423   3.263 -0.4980 -0.1509 -0.1871
21632SOL    HW166337   3.657   4.347   3.245 -0.0678  0.5056 -1.7313
21632SOL    HW266338   3.563   4.404   3.349  1.2147 -1.1537  0.4118
21633SOL     OW66339   6.447   5.461  10.487  0.1433  0.0719 -0.5518
21633SOL    HW166340   6.516   5.527  10.492  0.2908 -0.0380 -1.1609
21633SOL    HW266341   6.378   5.495  10.545  0.8515  0.0002  0.3441
21634SOL     OW66342   7.143   5.179   8.415  0.3126 -0.3387  0.3111
21634SOL    HW166343   7.231   5.198   8.446  1.6176 -3.1872 -1.2210
21634SOL    HW266344   7.133   5.231   8.336  0.2611  0.5861  0.9048
21635SOL     OW66345   1.082   1.529   2.677 -0.2223  0.0949 -0.7506
21635SOL    HW166346   0.999   1.572   2.701 -0.5997 -0.0253 -1.7905
21635SOL    HW266347   1.085   1.535   2.582  1.2178  0.5407 -0.7017
21636SOL     OW66348   0.476   3.174   7.100 -0.1507  0.4472  0.0117
21636SOL    HW166349   0.443   3.170   7.011 -2.0482 -0.7340  0.7139
21636SOL    HW266350   0.477   3.083   7.130 -0.0887  0.8706  1.3682
21637SOL     OW66351   6.469   4.115   1.658 -0.0847 -0.0796  0.2880
21637SOL    HW166352   6.491   4.202   1.688  2.7619 -1.3433  2.2967
21637SOL    HW266353   6.399   4.086   1.716  1.5009 -0.4109  2.1226
21638SOL     OW66354   6.744   5.347  10.373  0.6442  0.1084  0.5083
21638SOL    HW166355   6.693   5.307  10.443 -0.4480  2.1352  0.9612
21638SOL    HW266356   6.725   5.295  10.295 -1.0786  0.0148  0.9601
21639SOL     OW66357   4.248   6.846   6.229 -0.2082  0.5307 -0.5946
21639SOL    HW166358   4.190   6.774   6.205  1.5334 -0.8752 -0.7354
21639SOL    HW266359   4.246   6.847   6.325  1.7286 -1.4947 -0.4398
21640SOL     OW66360   4.124   2.749   7.947  0.0422 -0.2166 -0.2970
21640SOL    HW166361   4.171   2.823   7.984  0.5033 -0.0107 -1.2468
21640SOL    HW266362   4.176   2.724   7.870 -1.2805 -0.1337 -1.2462
21641SOL     OW66363   6.064   6.876   7.777 -0.5318  0.0137  0.3136
21641SOL    HW166364   6.049   6.948   7.716 -0.6044 -0.0036  0.3113
21641SOL    HW266365   6.092   6.804   7.722 -1.1379 -0.1704  0.2339
21642SOL     OW66366   7.690   4.088   3.436  0.1512 -0.1677 -0.3547
21642SOL    HW166367   7.680   4.051   3.523 -0.4174  0.6261 -0.0711
21642SOL    HW266368   7.687   4.183   3.449  2.1658  0.0442 -0.9841
21643SOL     OW66369   1.249   5.027  10.962 -0.0363  0.2220  0.0098
21643SOL    HW166370   1.309   4.966  11.003  0.3155  0.4674 -0.1389
21643SOL    HW266371   1.172   4.974  10.941 -1.4239  0.5928  3.4621
21644SOL     OW66372   0.644   0.545   0.317  0.2194  0.6892 -1.3860
21644SOL    HW166373   0.735   0.547   0.288  0.1148 -0.6514 -1.8880
21644SOL    HW266374   0.649   0.529   0.411  0.4972  0.5035 -1.4324
21645SOL     OW66375   7.685   0.978  11.499  0.6341  0.1011 -0.0155
21645SOL    HW166376   7.737   1.042  11.451 -1.8202  1.6486 -0.7881
21645SOL    HW266377   7.679   0.903  11.440 -1.0961  1.4012 -1.6335
21646SOL     OW66378   7.486   3.278  12.387  0.5345 -0.3898  0.2844
21646SOL    HW166379   7.442   3.321  12.459 -0.6764 -1.8920  0.4952
21646SOL    HW266380   7.444   3.313  12.308  0.1366 -0.5575  0.4192
21647SOL     OW66381   2.106   0.565  12.240  0.4153 -0.0696 -0.9360
21647SOL    HW166382   2.090   0.658  12.223  1.5815  0.8613  2.2075
21647SOL    HW266383   2.021   0.530  12.265  0.2615  0.6411 -0.4174
21648SOL     OW66384   2.101   3.212   9.368  0.1716  0.1029 -0.3642
21648SOL    HW166385   2.097   3.283   9.432 -2.3742  0.3433 -0.6599
21648SOL    HW266386   2.191   3.213   9.335  0.4614  2.5598  0.3323
21649SOL     OW66387   5.807   5.935   7.641  0.3100 -0.3211  0.2621
21649SOL    HW166388   5.772   5.941   7.553 -1.2914 -2.5892  0.6577
21649SOL    HW266389   5.739   5.972   7.697  0.0562 -1.4775  0.7471
21650SOL     OW66390   0.384   0.242   8.775 -1.0354 -0.3600 -0.2569
21650SOL    HW166391   0.295   0.275   8.763 -2.0917 -2.1967  1.7098
21650SOL    HW266392   0.383   0.156   8.733 -0.8887 -1.2971  1.5796
21651SOL     OW66393   2.694   5.805   3.577  0.6727 -0.3731  0.1662
21651SOL    HW166394   2.657   5.717   3.587 -2.1403  0.7443  0.4779
21651SOL    HW266395   2.718   5.810   3.484  1.4981 -1.6464  0.2775
21652SOL     OW66396   6.009   1.345   5.923  0.0452 -0.3661 -0.4688
21652SOL    HW166397   5.935   1.284   5.921  0.4018 -0.8343  0.1274
21652SOL    HW266398   6.076   1.303   5.869 -0.3628  0.3978 -1.6053
21653SOL     OW66399   3.494   6.055   4.823 -0.0222  0.4325 -0.3974
21653SOL    HW166400   3.441   5.982   4.791 -1.4523  1.5875 -0.7631
21653SOL    HW266401   3.466   6.130   4.771  1.6054  1.1988 -0.2078
21654SOL     OW66402   2.135   1.612   6.491 -0.0063 -0.4043  0.0486
21654SOL    HW166403   2.174   1.531   6.524  1.7804  1.2971  2.5190
21654SOL    HW266404   2.205   1.652   6.438 -0.5132 -0.0401 -0.3545
21655SOL     OW66405   4.727   2.548   8.861 -0.6834  0.2443 -0.6677
21655SOL    HW166406   4.720   2.493   8.783  2.9559 -0.6386 -0.5681
21655SOL    HW266407   4.727   2.638   8.826  1.8531 -0.1422 -1.9581
21656SOL     OW66408   6.847   1.934   7.528  0.1221 -0.2360  0.6210
21656SOL    HW166409   6.869   1.841   7.526  0.2405 -0.2345  1.5610
21656SOL    HW266410   6.926   1.977   7.559  0.3157  0.2721 -0.5214
21657SOL     OW66411   0.452   7.398   2.750  0.1928 -0.5246  0.0226
21657SOL    HW166412   0.439   7.378   2.657  2.1305  1.1669 -0.6711
21657SOL    HW266413   0.374   7.362   2.792  0.0114 -2.8200 -2.0041
21658SOL     OW66414   4.026   6.429   1.157 -0.9502 -0.2103  0.4079
21658SOL    HW166415   4.085   6.462   1.225  1.0055  2.1335 -2.1825
21658SOL    HW266416   4.033   6.334   1.164  0.4219 -0.0371  2.3957
21659SOL     OW66417   0.095   3.363   4.111 -0.1827 -0.4428  0.2614
21659SOL    HW166418   0.050   3.321   4.037 -1.0653 -1.0348  1.1142
21659SOL    HW266419   0.161   3.419   4.070 -0.8969 -0.4803 -0.9834
21660SOL     OW66420   2.190   6.931   7.501 -0.3614 -0.1407  0.2707
21660SOL    HW166421   2.099   6.958   7.490  0.2697  1.6449 -1.0643
21660SOL    HW266422   2.238   7.013   7.515  1.1223 -0.9826  0.3198
21661SOL     OW66423   4.497   6.625   5.278 -0.1157 -0.3003  0.3011
21661SOL    HW166424   4.450   6.541   5.281 -1.6687  0.5452  1.9329
21661SOL    HW266425   4.453   6.674   5.209  0.2358 -0.5131 -0.0778
21662SOL     OW66426   5.243   0.994   3.567 -0.0745 -0.3197  0.5049
21662SOL    HW166427   5.335   1.012   3.586  0.0630 -0.2110 -0.2585
21662SOL    HW266428   5.226   0.910   3.611  0.4996 -0.5393  0.3204
21663SOL     OW66429   7.623   5.872   8.802  0.1147 -0.1883  0.0574
21663SOL    HW166430   7.596   5.890   8.892  0.1429 -0.7624  0.1875
21663SOL    HW266431   7.630   5.776   8.798  0.5685 -0.1421 -0.4199
21664SOL     OW66432   6.103   4.163   5.116 -0.4584  0.0305  0.1692
21664SOL    HW166433   6.057   4.230   5.066 -0.7648 -0.1275  0.2367
21664SOL    HW266434   6.060   4.081   5.090  0.6569 -0.2776 -0.7811
21665SOL     OW66435   7.740   6.134   8.198 -0.0037  0.5940 -0.2246
21665SOL    HW166436   7.685   6.058   8.178  1.7733 -1.1920  1.2225
21665SOL    HW266437   7.750   6.131   8.293  2.8078  0.5889 -0.4322
21666SOL     OW66438   0.852   0.081  10.987  0.1019 -0.2188 -0.3953
21666SOL    HW166439   0.764   0.113  11.006  0.2933 -0.2126  0.5048
21666SOL    HW266440   0.909   0.133  11.044  0.4188 -2.2396  1.2395
21667SOL     OW66441   7.429   1.918   0.323 -0.6120 -0.5974 -0.0545
21667SOL    HW166442   7.496   1.911   0.255  0.3803 -0.4737  0.8630
21667SOL    HW266443   7.471   1.879   0.400 -1.1449  0.5721  0.8535
21668SOL     OW66444   3.417   1.837   8.931  0.4281  0.8847  0.4040
21668SOL    HW166445   3.365   1.804   9.004  2.1903 -3.7526 -0.0944
21668SOL    HW266446   3.508   1.829   8.961  1.0908  3.1645 -0.7844
21669SOL     OW66447   1.505   2.267   8.158  0.3163 -0.0147  0.5982
21669SOL    HW166448   1.472   2.206   8.225  1.4739  0.4428  1.6383
21669SOL    HW266449   1.544   2.210   8.091 -0.4615 -0.4718  0.5237
21670SOL     OW66450   4.688   2.156  10.753 -0.3085  0.6697 -0.5443
21670SOL    HW166451   4.637   2.090  10.706  0.4549  0.0409 -0.5039
21670SOL    HW266452   4.772   2.158  10.708 -0.5395  2.0891 -0.9518
21671SOL     OW66453   1.338   1.577   2.240 -0.8872  0.3300 -0.2914
21671SOL    HW166454   1.318   1.520   2.166  1.4216 -0.7978 -0.1308
21671SOL    HW266455   1.344   1.665   2.201 -1.2621 -0.0008 -1.1336
21672SOL     OW66456   5.591   0.237   4.353 -0.3187  0.6291 -0.2488
21672SOL    HW166457   5.640   0.319   4.363  0.4369  0.0820  0.7531
21672SOL    HW266458   5.588   0.201   4.441 -0.4574 -0.5175 -0.7154
21673SOL     OW66459   1.556   1.681   1.592  0.3470  0.0420 -0.1373
21673SOL    HW166460   1.596   1.617   1.533 -1.2489 -0.4253 -0.7828
21673SOL    HW266461   1.551   1.636   1.676  0.1490 -0.3281 -0.3424
21674SOL     OW66462   2.273   5.838   4.124  0.3569  0.1764 -0.3731
21674SOL    HW166463   2.361   5.855   4.091  0.4199 -0.4745 -0.5634
21674SOL    HW266464   2.253   5.912   4.181  1.1537  0.1746 -0.0779
21675SOL     OW66465   5.202   5.715   0.666 -0.0815 -0.0715  0.4070
21675SOL    HW166466   5.265   5.775   0.704 -0.3239  0.7193 -0.4004
21675SOL    HW266467   5.147   5.769   0.609 -1.9421 -0.6018  1.5947
21676SOL     OW66468   7.174   3.526   1.499  0.2244  0.1418  0.1015
21676SOL    HW166469   7.129   3.581   1.563 -0.0769  0.1661 -0.1317
21676SOL    HW266470   7.111   3.515   1.428 -0.0212 -1.1321  0.4854
21677SOL     OW66471   6.205   6.236   1.933 -0.0113 -0.1466  0.4396
21677SOL    HW166472   6.223   6.310   1.874 -0.8011 -0.5713 -0.3632
21677SOL    HW266473   6.212   6.273   2.021 -0.5930  0.9300  0.0459
21678SOL     OW66474   0.005   3.933   8.798  0.5061 -0.1636  0.7969
21678SOL    HW166475   0.011   4.028   8.787  0.1880 -0.0795  1.3068
21678SOL    HW266476   0.062   3.914   8.873 -0.1720 -0.2442  1.3023
21679SOL     OW66477   7.590   5.717   5.125  0.8148 -0.3125  0.0288
21679SOL    HW166478   7.598   5.806   5.160  0.4387  0.5204 -1.9016
21679SOL    HW266479   7.527   5.674   5.184  0.1915  1.0268  0.3825
21680SOL     OW66480   3.652   2.522  10.968 -0.9447 -0.2518  0.0731
21680SOL    HW166481   3.564   2.494  10.945 -1.8236  0.6995  1.9627
21680SOL    HW266482   3.657   2.509  11.063  1.1639 -0.7929 -0.0575
21681SOL     OW66483   7.025   7.113   1.388 -0.1007 -0.8739 -0.2009
21681SOL    HW166484   7.059   7.032   1.427  0.2395 -1.2631 -1.2735
21681SOL    HW266485   7.100   7.151   1.343 -0.3582 -0.1554 -0.0359
21682SOL     OW66486   2.559   1.677   4.596 -1.0826  0.1562 -0.3276
21682SOL    HW166487   2.464   1.678   4.582 -1.6067 -1.7695  2.2361
21682SOL    HW266488   2.588   1.593   4.561 -0.5521  0.1639  0.0812
21683SOL     OW66489   0.663   0.948   7.310  0.0437 -0.5247 -0.1957
21683SOL    HW166490   0.604   0.981   7.378  0.5032 -0.7555  0.3236
21683SOL    HW266491   0.737   1.008   7.311 -0.0827 -0.3589 -0.7013
21684SOL     OW66492   0.445   6.481   7.389 -0.8631 -0.1362  0.5749
21684SOL    HW166493   0.534   6.446   7.385 -0.9851 -0.6774  1.8962
21684SOL    HW266494   0.395   6.427   7.328 -0.6180 -0.9570  1.0795
21685SOL     OW66495   6.107   6.063   1.568  0.0798  0.1023 -0.1200
21685SOL    HW166496   6.104   6.027   1.479 -0.7515 -0.2126  0.0295
21685SOL    HW266497   6.185   6.023   1.607  0.3073  0.0459 -0.6168
21686SOL     OW66498   6.087   5.761   6.734  0.0093  0.4339 -0.2675
21686SOL    HW166499   6.071   5.843   6.688 -3.5902 -0.4875 -0.9019
21686SOL    HW266500   6.050   5.694   6.678  1.4298 -1.5145  0.9917
21687SOL     OW66501   4.747   6.448   6.171  0.2205 -0.0001  0.3745
21687SOL    HW166502   4.702   6.520   6.215  0.1520  0.3751 -0.2953
21687SOL    HW266503   4.780   6.487   6.090 -0.1581 -0.8293 -0.1833
21688SOL     OW66504   2.295   2.481   2.125 -0.0038 -0.1816 -0.0345
21688SOL    HW166505   2.226   2.481   2.058 -0.3679 -1.1736  0.3245
21688SOL    HW266506   2.247   2.477   2.208  0.4659  0.3222  0.2668
21689SOL     OW66507   6.527   6.428   3.624 -0.1661 -0.1477 -0.3195
21689SOL    HW166508   6.614   6.431   3.665 -0.0287 -0.3921 -0.5870
21689SOL    HW266509   6.543   6.389   3.538 -0.5207 -0.0562 -0.4274
21690SOL     OW66510   5.035   6.780   4.169 -0.3770  0.2693  0.0323
21690SOL    HW166511   4.998   6.761   4.255 -0.5797 -0.1327 -0.1433
21690SOL    HW266512   4.960   6.787   4.111 -0.1586 -1.7871 -0.5744
21691SOL     OW66513   6.685   7.467   6.768 -0.1893  0.2640 -0.3413
21691SOL    HW166514   6.676   7.554   6.730  0.1129  0.5117  0.1435
21691SOL    HW266515   6.599   7.449   6.807 -0.5399 -0.0444 -1.2291
21692SOL     OW66516   4.557   0.803   9.721  0.5583 -0.1891  0.8149
21692SOL    HW166517   4.498   0.743   9.676 -0.9411  0.6975  1.5178
21692SOL    HW266518   4.564   0.878   9.662  1.9789 -0.7755  0.1933
21693SOL     OW66519   5.705   2.424  12.066 -0.2847  0.8794  0.6387
21693SOL    HW166520   5.622   2.471  12.064 -0.7791  0.0936 -2.5159
21693SOL    HW266521   5.770   2.491  12.090 -1.3392  2.5043 -0.8151
21694SOL     OW66522   5.428   7.456   4.263  0.3095 -0.0784  0.1748
21694SOL    HW166523   5.429   7.488   4.354 -0.3717  1.2767 -0.2832
21694SOL    HW266524   5.337   7.433   4.247  0.3811 -0.0339 -0.2821
21695SOL     OW66525   6.036   2.147  11.727  0.3335  0.2583 -0.4815
21695SOL    HW166526   6.076   2.216  11.780 -0.6794  0.6549 -0.1889
21695SOL    HW266527   6.084   2.068  11.750 -0.8426  0.1474  2.0338
21696SOL     OW66528   2.196   1.197  10.850 -0.1965  0.3196 -0.3684
21696SOL    HW166529   2.286   1.231  10.856 -0.8950  2.1203  0.5108
21696SOL    HW266530   2.153   1.254  10.786 -1.1630  0.5691  0.4803
21697SOL     OW66531   7.051   1.954  10.263 -0.0543 -0.5530  0.0826
21697SOL    HW166532   7.080   1.863  10.260  1.2953 -0.2010  1.5920
21697SOL    HW266533   7.112   2.000  10.205  0.2662 -0.3731  0.5541
21698SOL     OW66534   2.078   4.115   0.219 -0.5328 -0.5655  0.2520
21698SOL    HW166535   2.067   4.020   0.227  1.4050 -0.8956 -0.6620
21698SOL    HW266536   2.151   4.126   0.159 -0.7554  1.5319  0.3061
21699SOL     OW66537   3.628   5.458   8.909 -0.0500 -0.2243 -0.1983
21699SOL    HW166538   3.663   5.369   8.918 -0.7901 -0.6414 -1.2575
21699SOL    HW266539   3.672   5.508   8.978 -1.2941 -1.8910  1.9473
21700SOL     OW66540   6.961   1.042  10.555 -0.1186 -0.2486 -0.0224
21700SOL    HW166541   7.035   0.984  10.537  0.4737  0.7636 -1.0054
21700SOL    HW266542   6.893   0.984  10.588 -0.1407 -1.8053 -2.5508
21701SOL     OW66543   4.705   5.592   0.808  0.0008 -0.1515  0.2310
21701SOL    HW166544   4.623   5.572   0.764 -1.3420  2.2111  1.4571
21701SOL    HW266545   4.712   5.526   0.877 -1.3782  0.1491  0.6928
21702SOL     OW66546   2.948   3.578  11.451  0.2016 -0.4493  0.2830
21702SOL    HW166547   2.985   3.625  11.376  0.9552 -0.3813  0.6904
21702SOL    HW266548   2.860   3.554  11.422 -0.7546  2.3899  0.5140
21703SOL     OW66549   3.383   7.360   1.021 -0.1168  0.4352 -0.0084
21703SOL    HW166550   3.446   7.413   0.972  0.8419 -0.8680 -0.2298
21703SOL    HW266551   3.434   7.287   1.057 -0.9284  0.9168  2.3253
21704SOL     OW66552   0.274   5.780   2.043  0.2600  0.0764 -0.2634
21704SOL    HW166553   0.296   5.853   1.985  1.0925  1.2100  1.3766
21704SOL    HW266554   0.360   5.746   2.070 -0.0660  0.4414  1.3020
21705SOL     OW66555   2.787   6.756   0.376  0.1692 -0.7973  0.3713
21705SOL    HW166556   2.778   6.852   0.378  1.2988 -0.5969 -1.2969
21705SOL    HW266557   2.813   6.732   0.465  1.3015  0.6507  0.4756
21706SOL     OW66558   3.104   5.649   6.911  0.2505 -0.5290  0.4272
21706SOL    HW166559   3.028   5.626   6.965 -1.4004  3.0151 -0.0935
21706SOL    HW266560   3.078   5.625   6.822  0.9615 -1.8910  0.5656
21707SOL     OW66561   2.555   0.580   2.920  0.3031  0.0402 -0.4751
21707SOL    HW166562   2.465   0.600   2.948  0.4643  0.1352 -0.0127
21707SOL    HW266563   2.544   0.514   2.851 -0.1141 -0.1370 -0.2487
21708SOL     OW66564   4.577   6.623   5.979  0.0115  0.1660 -0.5711
21708SOL    HW166565   4.590   6.678   6.056  1.7773 -0.3458 -0.4565
21708SOL    HW266566   4.484   6.630   5.960 -0.5079  0.2493  1.6591
21709SOL     OW66567   3.909   5.770   0.587 -0.6747  0.2382 -0.5511
21709SOL    HW166568   3.851   5.843   0.565 -0.3258  1.8210  3.1551
21709SOL    HW266569   3.855   5.692   0.570 -1.9042  1.3859 -2.3352
21710SOL     OW66570   7.168   1.755  12.095 -0.7036  0.5200 -0.0579
21710SOL    HW166571   7.073   1.754  12.083 -0.5046  0.3191 -1.7530
21710SOL    HW266572   7.199   1.678  12.048  0.3110  0.5819  0.4864
21711SOL     OW66573   5.596   1.218   3.462 -0.0506 -0.2121  0.2514
21711SOL    HW166574   5.649   1.282   3.510  1.1913 -1.8071  1.1083
21711SOL    HW266575   5.566   1.157   3.529  0.3331 -1.5551 -0.7523
21712SOL     OW66576   7.324   5.483   2.879  0.1765 -0.1844 -0.2798
21712SOL    HW166577   7.256   5.439   2.828 -0.3436  0.8061 -0.4818
21712SOL    HW266578   7.276   5.526   2.950  0.8896 -1.4658  1.0184
21713SOL     OW66579   7.666   5.638   0.022  0.5466 -0.0841  0.4747
21713SOL    HW166580   7.612   5.567  -0.013  2.2958 -0.8801 -0.7734
21713SOL    HW266581   7.621   5.665   0.102 -0.9028 -1.6644  0.2635
21714SOL     OW66582   4.350   3.711   2.072 -0.1772 -0.1814  0.0461
21714SOL    HW166583   4.394   3.783   2.027 -0.0679 -0.5981 -0.5279
21714SOL    HW266584   4.301   3.753   2.143  0.1493  0.4182 -0.0775
21715SOL     OW66585   1.834   3.576   5.742 -0.1130 -0.2238  0.6742
21715SOL    HW166586   1.821   3.668   5.722 -1.3678 -0.7508 -1.2287
21715SOL    HW266587   1.763   3.554   5.802  0.1460  0.0160  1.0736
21716SOL     OW66588   3.415   2.729   8.991 -0.1456 -0.3032  0.8994
21716SOL    HW166589   3.463   2.807   9.019 -0.4925  0.8131 -1.3948
21716SOL    HW266590   3.451   2.658   9.045  0.6988  1.2725  2.5365
21717SOL     OW66591   7.604   1.116   4.610  0.4125  0.0412 -0.2001
21717SOL    HW166592   7.687   1.128   4.564  0.3387  0.5021 -0.2269
21717SOL    HW266593   7.616   1.165   4.692  1.0235 -1.8535  0.8982
21718SOL     OW66594   2.929   3.637   6.836 -0.4711  0.0641 -0.1586
21718SOL    HW166595   2.925   3.684   6.753  0.0661  1.6467  0.6677
21718SOL    HW266596   3.010   3.667   6.877 -0.9632 -0.3147  1.1422
21719SOL     OW66597   7.002   1.183   7.986  0.3852 -0.1060  0.5243
21719SOL    HW166598   6.985   1.108   7.930  2.1701  0.1614 -0.4731
21719SOL    HW266599   7.005   1.258   7.927 -0.8876  0.7148  1.4370
21720SOL     OW66600   6.584   4.305   8.693  0.0209 -0.0691 -0.5909
21720SOL    HW166601   6.670   4.288   8.732 -1.1039  1.6422  3.1771
21720SOL    HW266602   6.581   4.400   8.682 -2.1280  0.2474  1.7819
21721SOL     OW66603   7.526   0.524   0.657 -0.4074 -0.0216  0.2453
21721SOL    HW166604   7.539   0.478   0.740  0.6889 -0.0988  0.0481
21721SOL    HW266605   7.581   0.602   0.663 -0.1989 -0.1053 -0.4619
21722SOL     OW66606   7.665   0.186   8.042  0.2236 -0.5405 -0.1683
21722SOL    HW166607   7.664   0.206   7.948 -1.2483 -2.3017 -0.5872
21722SOL    HW266608   7.583   0.223   8.075  0.8491  0.2880  0.5088
21723SOL     OW66609   5.302   4.846   7.007 -0.0226 -0.1163  0.1982
21723SOL    HW166610   5.310   4.815   6.917  1.4853  0.5112  0.0877
21723SOL    HW266611   5.370   4.800   7.055 -1.0079 -0.6737  1.1183
21724SOL     OW66612   6.095   1.853  11.628  0.5874  0.2797  0.1718
21724SOL    HW166613   6.037   1.854  11.704  2.3990  0.2515  1.6441
21724SOL    HW266614   6.146   1.772  11.638 -0.0576 -0.4458 -1.8646
21725SOL     OW66615   3.856   2.480  10.271  0.4318  0.5599 -0.2639
21725SOL    HW166616   3.891   2.526  10.195  0.0199  0.1047 -0.7318
21725SOL    HW266617   3.924   2.417  10.295  0.7789  1.0522  0.0654
21726SOL     OW66618   1.176   2.768   6.880 -0.3763  0.2676 -0.3454
21726SOL    HW166619   1.195   2.796   6.970  0.2046  0.6806 -0.5900
21726SOL    HW266620   1.095   2.718   6.887  0.2122 -0.5942  0.5688
21727SOL     OW66621   3.328   6.402   0.402  0.5962 -0.0468 -0.2239
21727SOL    HW166622   3.270   6.403   0.326  0.1796  2.2472  0.0488
21727SOL    HW266623   3.342   6.309   0.421 -0.9920 -0.6540 -1.7911
21728SOL     OW66624   2.974   4.777   1.088  0.4260 -0.0456 -0.1826
21728SOL    HW166625   2.904   4.829   1.128 -1.5248 -1.9931 -0.8790
21728SOL    HW266626   3.009   4.723   1.160 -2.2314 -2.6366 -0.6586
21729SOL     OW66627   5.040   3.145   2.556 -0.1081  1.0982  0.0110
21729SOL    HW166628   4.988   3.065   2.568 -0.7797  1.7144  1.3692
21729SOL    HW266629   4.977   3.216   2.560  0.7847  1.8493  1.4326
21730SOL     OW66630   7.410   0.343   0.469  0.4623 -0.2654 -0.7905
21730SOL    HW166631   7.457   0.406   0.524  0.6749  0.3826 -1.6943
21730SOL    HW266632   7.319   0.348   0.500  0.6682 -0.2683 -0.1760
21731SOL     OW66633   6.116   2.073   0.505 -0.2273  0.1777  0.3780
21731SOL    HW166634   6.049   2.080   0.574 -0.5595 -2.4440  0.4196
21731SOL    HW266635   6.069   2.034   0.431  0.9898 -0.6953  0.0407
21732SOL     OW66636   3.177   4.366   1.588  0.5573 -0.2080  0.3424
21732SOL    HW166637   3.145   4.416   1.663  0.0399 -0.7532  0.4934
21732SOL    HW266638   3.236   4.427   1.542 -0.4849  0.7408  0.2110
21733SOL     OW66639   6.680   5.696   5.259 -0.0053  0.5457  0.5319
21733SOL    HW166640   6.743   5.677   5.190  0.0862  1.0312  0.4778
21733SOL    HW266641   6.595   5.699   5.215 -0.9171 -4.8825  1.2233
21734SOL     OW66642   0.987   2.156  10.380  1.1332 -0.2640  0.0993
21734SOL    HW166643   0.937   2.188  10.456 -0.4072  2.4717 -1.8716
21734SOL    HW266644   0.941   2.076  10.353  0.0045  0.2399  0.4661
21735SOL     OW66645   1.030   4.689   8.643 -0.4732 -0.6820 -0.4602
21735SOL    HW166646   1.099   4.684   8.709  1.1795 -1.0027 -2.1128
21735SOL    HW266647   0.970   4.619   8.666  0.2982 -1.0576  0.4811
21736SOL     OW66648   0.241   2.290   7.721 -1.0269  0.4483 -0.6787
21736SOL    HW166649   0.179   2.276   7.649 -2.6850 -1.7642  1.0397
21736SOL    HW266650   0.194   2.347   7.782  0.2453  2.0432 -1.1170
21737SOL     OW66651   5.317   6.996   5.464  0.0348 -0.6941 -0.5586
21737SOL    HW166652   5.325   6.948   5.547  1.4686 -0.2734 -0.4181
21737SOL    HW266653   5.225   7.021   5.460 -0.3271 -1.7904  0.2981
21738SOL     OW66654   5.408   6.833  10.941  0.3790 -0.0361  0.0563
21738SOL    HW166655   5.323   6.795  10.963  0.2779 -0.5177 -1.0860
21738SOL    HW266656   5.444   6.774  10.874  0.4115  1.6209 -1.4692
21739SOL     OW66657   5.232   6.725  12.263  0.0269 -0.2215  0.5496
21739SOL    HW166658   5.155   6.725  12.321  0.0687  0.4459  0.6186
21739SOL    HW266659   5.196   6.743  12.176 -0.2035 -2.6132  0.0945
21740SOL     OW66660   3.106   1.972   9.041  0.1346  0.0482  0.6906
21740SOL    HW166661   3.188   1.990   9.087 -0.5232  0.2944  1.7976
21740SOL    HW266662   3.057   2.055   9.046 -0.7207 -0.4741  1.1972
21741SOL     OW66663   3.259   4.808   5.236  0.1432  0.5662 -0.5179
21741SOL    HW166664   3.216   4.746   5.177 -0.4058  0.8427 -0.4185
21741SOL    HW266665   3.203   4.808   5.314  0.7044  0.4199 -0.1161
21742SOL     OW66666   6.631   2.196   3.183 -0.4941 -0.2208  0.7173
21742SOL    HW166667   6.635   2.287   3.152 -0.2876 -0.4230  0.1254
21742SOL    HW266668   6.604   2.203   3.274 -1.8585  0.3559  0.2847
21743SOL     OW66669   7.339   7.565   2.948  0.2983  0.1016 -0.0286
21743SOL    HW166670   7.348   7.627   2.876 -2.1574  0.0342 -0.4802
21743SOL    HW266671   7.291   7.613   3.016 -0.6940 -0.9410  0.0461
21744SOL     OW66672   1.136   5.663  11.749 -0.3688  0.2685  0.4896
21744SOL    HW166673   1.201   5.715  11.702  0.0132 -0.9659 -0.4080
21744SOL    HW266674   1.082   5.624  11.680  0.7475 -2.2869  0.9296
21745SOL     OW66675   6.209   2.387   3.233  0.3404  0.0591 -0.9102
21745SOL    HW166676   6.172   2.423   3.153 -0.0598  1.6582 -0.0538
21745SOL    HW266677   6.196   2.293   3.225 -1.8952  0.3682 -1.6685
21746SOL     OW66678   5.325   6.337  11.470 -0.3066 -0.2464  0.5421
21746SOL    HW166679   5.285   6.407  11.418  0.5850 -0.1951 -0.0872
21746SOL    HW266680   5.273   6.259  11.448  0.0978 -0.2406 -0.4877
21747SOL     OW66681   3.924   2.134  11.122  0.1002 -0.3364 -0.6177
21747SOL    HW166682   3.857   2.085  11.074  0.0935 -0.5429 -0.3978
21747SOL    HW266683   3.930   2.090  11.207  0.5043 -0.3100 -0.6309
21748SOL     OW66684   2.022   6.516   3.305  0.7821 -0.2879 -0.6087
21748SOL    HW166685   1.962   6.454   3.263  1.0416 -0.6617 -0.4323
21748SOL    HW266686   2.018   6.594   3.251  0.2102 -0.3481 -0.6587
21749SOL     OW66687   6.434   7.832   2.369  0.1222  0.0891 -0.0425
21749SOL    HW166688   6.361   7.889   2.394  1.1171  0.9977  0.8850
21749SOL    HW266689   6.458   7.861   2.281 -1.0053 -0.6381 -0.6216
21750SOL     OW66690   7.449   2.557   2.949 -0.1313  0.5228  0.5964
21750SOL    HW166691   7.465   2.627   2.885 -1.8945 -0.4215 -0.9691
21750SOL    HW266692   7.429   2.480   2.896 -1.7679 -0.2731  2.2560
21751SOL     OW66693   0.828   0.932   9.007 -0.0104  0.1677  0.0037
21751SOL    HW166694   0.905   0.951   8.953 -1.1786  1.1583 -1.4250
21751SOL    HW266695   0.816   1.011   9.060 -0.1876  0.1284  0.0229
21752SOL     OW66696   5.829   1.127  11.806  0.2110 -0.2141  0.3502
21752SOL    HW166697   5.836   1.223  11.806 -0.3616 -0.0735 -2.4104
21752SOL    HW266698   5.744   1.110  11.845 -0.0083  0.4827  0.2033
21753SOL     OW66699   5.468   3.597  10.170 -0.1150 -0.2817  0.2777
21753SOL    HW166700   5.443   3.507  10.147 -1.8150  0.9523 -3.5078
21753SOL    HW266701   5.395   3.629  10.223 -1.1850 -0.1662 -1.2140
21754SOL     OW66702   0.288   5.724   5.237  0.1610 -0.4499 -0.3253
21754SOL    HW166703   0.253   5.691   5.320  1.0266  0.7813  0.5614
21754SOL    HW266704   0.227   5.691   5.170 -0.4242 -1.6453  0.7675
21755SOL     OW66705   2.043   2.094   5.961  0.1649 -0.1062  0.5261
21755SOL    HW166706   2.024   2.174   5.913 -2.0250  1.4176  3.6084
21755SOL    HW266707   2.015   2.024   5.903  0.5207  1.3974 -1.5626
21756SOL     OW66708   6.391   6.951   7.690  0.3412  0.7051  0.2264
21756SOL    HW166709   6.402   7.005   7.611  1.6669  2.4144  1.4987
21756SOL    HW266710   6.354   6.869   7.658 -0.1724  1.7314 -2.0340
21757SOL     OW66711   6.997   0.274   8.262  0.1829 -0.4145 -0.3402
21757SOL    HW166712   6.986   0.189   8.220  2.0650 -0.7937 -0.1283
21757SOL    HW266713   6.925   0.278   8.325  0.1531 -1.9107 -0.2355
21758SOL     OW66714   1.502   6.893   3.189  0.3297  0.5166  0.0330
21758SOL    HW166715   1.586   6.925   3.157  0.2986  0.7421  0.1721
21758SOL    HW266716   1.439   6.959   3.160  0.3064  0.7461  0.5924
21759SOL     OW66717   5.887   1.852  11.831 -0.0784 -0.0375  0.1971
21759SOL    HW166718   5.912   1.769  11.873  0.2016  0.1257  0.3513
21759SOL    HW266719   5.801   1.872  11.867  1.1922  1.4370  2.7181
21760SOL     OW66720   1.604   4.798   9.126 -0.3189 -0.1740  0.5527
21760SOL    HW166721   1.528   4.769   9.176 -1.1779 -0.7597 -1.0350
21760SOL    HW266722   1.594   4.893   9.121 -1.0000 -0.2536  0.2858
21761SOL     OW66723   0.333   2.669   2.722 -0.0316 -0.5496  0.7001
21761SOL    HW166724   0.314   2.608   2.651  0.0362  1.4782 -1.1710
21761SOL    HW266725   0.330   2.616   2.801 -2.9093 -2.4178 -0.4952
21762SOL     OW66726   7.397   2.721   6.021 -0.4803  0.3811  0.4613
21762SOL    HW166727   7.379   2.767   6.103 -1.4739  0.3161  0.2917
21762SOL    HW266728   7.464   2.774   5.978  0.6379 -0.0013  1.6562
21763SOL     OW66729   6.021   6.233   7.623  0.0645 -0.3965 -0.2093
21763SOL    HW166730   5.959   6.216   7.694  0.0785  0.8522  0.1256
21763SOL    HW266731   5.991   6.177   7.551  0.3952 -2.1313  0.9390
21764SOL     OW66732   0.191   1.821   1.772  0.0245  0.1473 -0.0278
21764SOL    HW166733   0.262   1.772   1.814  0.8869  0.8563 -0.6255
21764SOL    HW266734   0.111   1.786   1.812  0.7729  0.5081  1.8999
21765SOL     OW66735   7.186   2.096   6.228 -0.0343  0.2032 -0.5247
21765SOL    HW166736   7.238   2.151   6.170  0.3894 -0.6163 -0.9467
21765SOL    HW266737   7.177   2.013   6.181  1.2190 -0.8727  0.9985
21766SOL     OW66738   5.922   1.134   4.469 -0.3243  0.2479  0.4581
21766SOL    HW166739   5.859   1.158   4.537 -2.8561  0.9547 -1.9634
21766SOL    HW266740   5.948   1.217   4.430 -2.7637 -0.2284 -2.5538
21767SOL     OW66741   3.426   3.980   9.934  0.5155 -0.0781 -0.1862
21767SOL    HW166742   3.372   4.024   9.869 -0.7728 -1.0532  0.1761
21767SOL    HW266743   3.475   3.915   9.885  0.3981 -0.0535 -0.3361
21768SOL     OW66744   4.645   5.494   0.380  0.3201 -0.6947  0.0904
21768SOL    HW166745   4.703   5.466   0.309  2.5885  1.4323  0.9581
21768SOL    HW266746   4.705   5.530   0.446 -1.7322 -1.7991  2.7604
21769SOL     OW66747   6.455   0.375  10.821 -0.0740  0.2993  0.3661
21769SOL    HW166748   6.435   0.465  10.844 -0.9087  0.5263 -1.0989
21769SOL    HW266749   6.529   0.382  10.760 -1.2732  0.1935 -1.1817
21770SOL     OW66750   2.812   7.863   4.023  0.0480  0.3266 -0.4718
21770SOL    HW166751   2.734   7.909   4.053  0.8539  0.8299  0.9818
21770SOL    HW266752   2.878   7.932   4.012  0.4259 -0.1420 -1.1998
21771SOL     OW66753   6.653   3.445   6.033  0.0911 -0.9225  0.2296
21771SOL    HW166754   6.691   3.498   6.103  2.1193 -1.0035 -0.7387
21771SOL    HW266755   6.624   3.509   5.967  1.6188 -0.9107 -0.4851
21772SOL     OW66756   7.830   1.596   7.112  0.9337  0.3061 -0.8556
21772SOL    HW166757   7.840   1.651   7.190 -0.5569 -1.3563  0.5841
21772SOL    HW266758   7.763   1.532   7.136 -0.6752  0.6195 -4.0270
21773SOL     OW66759   7.648   6.352  11.286  0.0772  0.5236 -0.0442
21773SOL    HW166760   7.735   6.342  11.325  0.8040  1.0210 -1.4780
21773SOL    HW266761   7.607   6.266  11.297  1.7481 -0.5381 -1.6367
21774SOL     OW66762   2.056   2.875   3.164  0.0767  0.8747  0.3542
21774SOL    HW166763   2.102   2.791   3.155  2.3760  1.9459  1.2021
21774SOL    HW266764   1.966   2.852   3.183  0.8017 -1.4132  1.2961
21775SOL     OW66765   2.346   5.549   5.047 -0.1968 -0.3657  0.2750
21775SOL    HW166766   2.288   5.486   5.005 -0.4491 -1.1620  1.7391
21775SOL    HW266767   2.316   5.553   5.138  0.2372  1.3782  0.3900
21776SOL     OW66768   7.151   7.910   8.962 -0.4082 -0.2959 -0.4803
21776SOL    HW166769   7.212   7.983   8.946 -0.2199 -0.3040  0.1989
21776SOL    HW266770   7.207   7.833   8.966 -0.4988 -0.3442 -0.1623
21777SOL     OW66771   5.747   2.000   7.444 -0.3039 -0.0183 -0.0557
21777SOL    HW166772   5.822   2.031   7.494 -0.9243  1.5533 -0.0508
21777SOL    HW266773   5.671   2.042   7.485 -1.0027 -0.1316 -1.1736
21778SOL     OW66774   1.763   2.260   2.568  0.5999  0.1030  0.2692
21778SOL    HW166775   1.760   2.173   2.530 -2.8575 -0.0481  0.5745
21778SOL    HW266776   1.856   2.283   2.569  1.4864 -2.9574 -1.1171
21779SOL     OW66777   3.899   2.919   7.357  0.0790 -0.1880  0.7495
21779SOL    HW166778   3.884   2.964   7.274  0.9579 -1.7571 -0.3090
21779SOL    HW266779   3.993   2.899   7.357 -0.0261 -0.7654  1.8338
21780SOL     OW66780   1.201   4.587   1.747 -0.2796 -0.2281  0.4854
21780SOL    HW166781   1.141   4.608   1.676 -0.2723  0.2201  0.6076
21780SOL    HW266782   1.260   4.662   1.752  1.7661 -1.6160 -1.1323
21781SOL     OW66783   5.277   5.171   3.630 -0.3254  0.1326 -0.3745
21781SOL    HW166784   5.307   5.118   3.556 -0.4276 -0.9791  0.3695
21781SOL    HW266785   5.357   5.213   3.662  0.1678 -1.3595  0.4365
21782SOL     OW66786   0.984   4.834   3.159  0.0498  0.0084  0.3080
21782SOL    HW166787   1.057   4.890   3.185  1.8255 -0.7642 -2.5686
21782SOL    HW266788   0.946   4.877   3.082  0.5145 -1.8876 -1.0626
21783SOL     OW66789   6.643   3.652   4.908 -0.0146  0.2232 -0.0564
21783SOL    HW166790   6.586   3.594   4.959 -1.5085 -0.0084 -1.8595
21783SOL    HW266791   6.583   3.697   4.848  1.5563  0.9783 -1.1219
21784SOL     OW66792   4.524   5.826   5.016  0.0311  0.6866 -0.1418
21784SOL    HW166793   4.613   5.817   4.983  0.7557  0.6007  1.7172
21784SOL    HW266794   4.498   5.738   5.041 -0.3408  0.8082 -0.0814
21785SOL     OW66795   1.544   6.975   1.540  0.0888  0.5923 -0.0105
21785SOL    HW166796   1.504   7.048   1.493 -0.6209 -0.2191 -0.6969
21785SOL    HW266797   1.571   6.914   1.471  1.1267  0.4170  0.5230
21786SOL     OW66798   5.456   4.308  12.021  0.5599  0.0842 -0.0218
21786SOL    HW166799   5.542   4.315  11.979  1.9990  1.1709  2.8214
21786SOL    HW266800   5.446   4.215  12.040  0.6864 -0.1674 -1.1219
21787SOL     OW66801   2.620   7.600   0.204  0.1586  0.2126 -0.6292
21787SOL    HW166802   2.642   7.693   0.202 -0.5052  0.3963  0.0564
21787SOL    HW266803   2.540   7.593   0.152 -2.1051  0.7350  2.4347
21788SOL     OW66804   7.377   1.947   7.298  0.2362 -0.0819  0.1509
21788SOL    HW166805   7.321   2.014   7.336 -0.1203 -0.0021 -0.4980
21788SOL    HW266806   7.404   1.893   7.372  0.4487  0.7200  0.6629
21789SOL     OW66807   5.662   5.547   8.242 -0.2184 -0.0029 -0.4006
21789SOL    HW166808   5.586   5.516   8.192  0.0313 -1.7332  0.2268
21789SOL    HW266809   5.736   5.538   8.182 -0.4722  1.7149 -1.0234
21790SOL     OW66810   4.296   1.381   4.224  0.5189  0.0893  0.0576
21790SOL    HW166811   4.208   1.416   4.238  1.7501  2.9284  1.6634
21790SOL    HW266812   4.323   1.346   4.309  1.2152 -0.0171 -0.1989
21791SOL     OW66813   5.093   5.267  12.092 -0.1438 -0.0744 -0.4612
21791SOL    HW166814   5.096   5.319  12.011 -0.3027 -0.0037 -0.4224
21791SOL    HW266815   5.081   5.177  12.062 -2.2498  0.1527 -0.4687
21792SOL     OW66816   2.223   4.984   3.381  0.2336  0.0132  0.9396
21792SOL    HW166817   2.142   4.948   3.417 -1.2390  2.1737  0.0266
21792SOL    HW266818   2.209   4.984   3.286  0.4870  2.0236  0.8473
21793SOL     OW66819   2.095   4.106   5.705  0.1852 -0.7210 -0.7652
21793SOL    HW166820   2.087   4.026   5.757 -0.9960 -0.1357 -0.0181
21793SOL    HW266821   2.070   4.177   5.764  0.0313  0.0925 -1.7616
21794SOL     OW66822   1.226   4.260   8.230  0.1431 -0.2687  0.3500
21794SOL    HW166823   1.190   4.239   8.144 -0.3845  2.0833 -0.0598
21794SOL    HW266824   1.184   4.343   8.254  0.3903 -0.7776  2.8150
21795SOL     OW66825   5.049   5.099  10.961 -0.8623 -0.2891  0.7242
21795SOL    HW166826   4.977   5.144  10.918 -1.2161 -0.4328  1.1580
21795SOL    HW266827   5.121   5.161  10.959 -1.6630  0.7623  2.2977
21796SOL     OW66828   0.725   6.994   0.785  0.4789 -0.0674 -0.1031
21796SOL    HW166829   0.807   7.003   0.736  0.2421  0.0104 -0.4860
21796SOL    HW266830   0.692   6.908   0.760 -0.6578  0.7719 -1.6524
21797SOL     OW66831   7.021   1.527  10.411 -0.2379 -0.0836  0.4769
21797SOL    HW166832   6.982   1.493  10.491 -1.3764  2.6895  1.2086
21797SOL    HW266833   7.104   1.480  10.403 -0.8394 -1.5957  2.3694
21798SOL     OW66834   0.919   0.714   6.421 -0.1863 -0.2167  0.0988
21798SOL    HW166835   0.908   0.679   6.332 -1.6856 -3.0584  1.2868
21798SOL    HW266836   1.005   0.683   6.448  0.4343  0.9641 -0.4170
21799SOL     OW66837   7.733   4.457   2.568  0.1925 -0.2261  0.3031
21799SOL    HW166838   7.665   4.430   2.507  0.8104 -0.7889 -0.1370
21799SOL    HW266839   7.697   4.438   2.655 -1.6542  2.6469  0.3256
21800SOL     OW66840   5.319   5.509   8.470  0.7080 -0.4126 -0.1700
21800SOL    HW166841   5.234   5.467   8.453  0.5441  0.0583 -0.5674
21800SOL    HW266842   5.333   5.564   8.393  1.1946 -0.1970  0.0722
21801SOL     OW66843   7.287   0.679   7.154 -0.4984 -0.1046 -0.3583
21801SOL    HW166844   7.267   0.680   7.247  1.4907  1.0365  0.1182
21801SOL    HW266845   7.225   0.740   7.115  0.3204  1.4246  0.6487
21802SOL     OW66846   2.688   5.604  12.029 -0.7268  0.0616 -0.3688
21802SOL    HW166847   2.709   5.541  12.098 -0.6313  0.0961 -0.3649
21802SOL    HW266848   2.593   5.609  12.028 -0.6966  1.5352  1.1014
21803SOL     OW66849   1.903   1.650   9.593 -0.1228 -0.4154 -0.5851
21803SOL    HW166850   1.853   1.584   9.639 -0.0263 -0.4797 -0.5712
21803SOL    HW266851   1.982   1.662   9.646 -0.4295  0.1699 -0.2522
21804SOL     OW66852   7.300   5.489   6.960 -0.6249  0.2874  0.2524
21804SOL    HW166853   7.349   5.501   6.879  0.1148  1.6659  0.8553
21804SOL    HW266854   7.302   5.575   7.002  0.3438 -0.6964  2.4331
21805SOL     OW66855   0.370   6.886   0.284 -0.2839 -0.2286  0.5358
21805SOL    HW166856   0.279   6.859   0.297  0.0103 -0.8230  1.4504
21805SOL    HW266857   0.386   6.949   0.355  0.0334 -0.1617  0.4035
21806SOL     OW66858   5.625   5.762   5.734 -0.4365  0.0059  0.6376
21806SOL    HW166859   5.589   5.676   5.711  0.4533 -0.3106  0.3649
21806SOL    HW266860   5.581   5.823   5.675 -1.8910 -0.0899  1.5722
21807SOL     OW66861   7.160   0.275   1.418  0.1075 -0.1328 -0.1420
21807SOL    HW166862   7.254   0.259   1.427  0.5573  1.8527 -0.7958
21807SOL    HW266863   7.129   0.288   1.508  1.3169  3.2195 -0.0842
21808SOL     OW66864   3.547   6.438   1.114  0.0542 -0.0142  0.1011
21808SOL    HW166865   3.492   6.438   1.035  0.5314  1.0217 -0.2388
21808SOL    HW266866   3.492   6.395   1.180 -1.8535  2.3602  0.2182
21809SOL     OW66867   1.689   4.293   4.897  0.5300  0.0090 -0.1263
21809SOL    HW166868   1.612   4.281   4.953  0.2909  2.5338  0.1727
21809SOL    HW266869   1.661   4.260   4.811 -1.5365  2.3783 -0.4602
21810SOL     OW66870   5.650   7.947   3.310 -0.3859 -0.3800  0.2088
21810SOL    HW166871   5.582   7.887   3.278  1.4097 -2.3596 -0.0973
21810SOL    HW266872   5.602   8.023   3.342 -2.7286 -1.6772 -0.0388
21811SOL     OW66873   1.891   2.410  11.574  0.5530  0.5981  0.7999
21811SOL    HW166874   1.857   2.324  11.600 -0.2752  0.5859 -0.2481
21811SOL    HW266875   1.984   2.395  11.559  0.1481 -0.5328 -0.8969
21812SOL     OW66876   2.189   7.507   4.484 -0.4239 -0.4469  0.1651
21812SOL    HW166877   2.261   7.533   4.427  0.5374 -2.0421  0.5945
21812SOL    HW266878   2.201   7.560   4.563 -1.2875  1.1756 -0.7327
21813SOL     OW66879   3.061   6.762   0.869 -0.1455 -0.2758  0.2130
21813SOL    HW166880   3.088   6.690   0.812 -0.1954 -1.3459  1.5065
21813SOL    HW266881   3.126   6.831   0.852  1.3587 -1.5073  0.7101
21814SOL     OW66882   3.273   6.258   2.178  0.0267  0.3117  0.1842
21814SOL    HW166883   3.230   6.338   2.207  0.4837  0.9973 -0.9553
21814SOL    HW266884   3.270   6.262   2.082 -1.9666 -2.1546  0.0254
21815SOL     OW66885   7.259   1.610   8.181  0.2638 -0.1778 -0.3066
21815SOL    HW166886   7.249   1.702   8.208 -2.2891 -0.8782  1.5761
21815SOL    HW266887   7.221   1.607   8.093 -1.8075  0.2392  0.5073
21816SOL     OW66888   1.872   7.403   0.155  0.0310  0.1132 -0.1441
21816SOL    HW166889   1.872   7.484   0.103  1.2288 -0.5634 -1.2565
21816SOL    HW266890   1.861   7.333   0.090  0.5383 -0.6907  0.6175
21817SOL     OW66891   3.981   3.969   2.864  0.2607  0.3312 -0.0740
21817SOL    HW166892   3.979   3.993   2.957  0.4874  0.3350 -0.0707
21817SOL    HW266893   3.890   3.947   2.843  0.5677 -2.0347  0.7675
21818SOL     OW66894   5.490   2.167   7.372  0.9406 -0.1484  0.4808
21818SOL    HW166895   5.496   2.251   7.416  1.9491 -1.3551  2.8237
21818SOL    HW266896   5.398   2.160   7.345  0.6477  1.2913  1.0393
21819SOL     OW66897   1.634   0.162  10.214 -0.1709  0.3900  0.0111
21819SOL    HW166898   1.540   0.148  10.198 -0.0852 -0.3635  0.1482
21819SOL    HW266899   1.647   0.256  10.197 -1.0139  0.5733  0.3345
21820SOL     OW66900   0.706   4.945   6.595 -0.4008  0.1610 -0.2712
21820SOL    HW166901   0.614   4.968   6.579 -0.1774  0.5612 -1.0392
21820SOL    HW266902   0.714   4.944   6.690 -1.4454 -0.8654 -0.1740
21821SOL     OW66903   3.303   1.224   1.608 -0.0886  0.3674 -0.0897
21821SOL    HW166904   3.395   1.215   1.584 -0.8770  0.1866 -3.6779
21821SOL    HW266905   3.273   1.135   1.624  0.4363  0.4822  1.7568
21822SOL     OW66906   4.890   1.069   1.536  0.5974  0.3437 -0.0997
21822SOL    HW166907   4.919   1.140   1.592 -1.6106  1.0886  0.2050
21822SOL    HW266908   4.872   1.111   1.451  0.7288 -0.1494 -0.3773
21823SOL     OW66909   6.510   0.864   1.458  0.0520  0.1363  0.6827
21823SOL    HW166910   6.542   0.933   1.400  0.8415  0.0868  1.0560
21823SOL    HW266911   6.450   0.813   1.403 -0.0967  0.7660  0.2410
21824SOL     OW66912   2.618   2.256   4.936  0.0189  0.0338  0.7526
21824SOL    HW166913   2.586   2.339   4.901 -0.0985  0.0905  0.9885
21824SOL    HW266914   2.711   2.271   4.950  0.3155 -0.3750 -0.6373
21825SOL     OW66915   6.741   5.870   9.520 -0.1734 -0.5686 -0.5855
21825SOL    HW166916   6.819   5.814   9.521  1.2738  1.1544 -3.6136
21825SOL    HW266917   6.704   5.857   9.433 -1.3562  1.1364 -0.3864
21826SOL     OW66918   2.476   4.080   5.444 -0.2245 -0.2335 -0.8099
21826SOL    HW166919   2.504   4.144   5.379  0.6531 -0.3554 -0.5723
21826SOL    HW266920   2.411   4.126   5.498  0.3207  0.4335 -0.7022
21827SOL     OW66921   7.555   7.473   9.401 -0.0240 -0.0293 -0.1870
21827SOL    HW166922   7.557   7.513   9.488  1.1741  0.0454 -0.2303
21827SOL    HW266923   7.553   7.378   9.418 -0.2933 -0.0043 -0.0793
21828SOL     OW66924   3.372   6.610   8.720  0.0074  0.1080  0.1054
21828SOL    HW166925   3.290   6.629   8.673 -0.1994  2.1783  1.1959
21828SOL    HW266926   3.396   6.693   8.761  2.5587 -0.5043  0.0268
21829SOL     OW66927   7.763   1.597   5.190  0.1344 -0.4050 -0.0621
21829SOL    HW166928   7.672   1.574   5.174  0.2020 -0.7635  0.0684
21829SOL    HW266929   7.776   1.679   5.141  0.6005 -1.9377 -2.6662
21830SOL     OW66930   2.866   1.166  10.830 -0.4087  0.0539  0.2007
21830SOL    HW166931   2.781   1.160  10.874 -0.3151  1.0463  0.5377
21830SOL    HW266932   2.879   1.080  10.791 -0.1684 -1.0984  2.6933
21831SOL     OW66933   5.087   1.429   6.971  0.1276  0.2607  0.2401
21831SOL    HW166934   5.049   1.417   7.058  0.3969  0.1774  0.3472
21831SOL    HW266935   5.072   1.346   6.926 -0.0680  0.3253  0.1834
21832SOL     OW66936   5.600   2.457   5.649 -0.2891  0.0508  0.1206
21832SOL    HW166937   5.532   2.411   5.600 -1.2200  0.2000  1.2377
21832SOL    HW266938   5.654   2.388   5.687 -1.7306 -0.1757  1.8637
21833SOL     OW66939   6.424   1.112   9.199  0.5086 -0.2560 -0.1135
21833SOL    HW166940   6.488   1.047   9.171 -0.2307 -0.1475 -2.2233
21833SOL    HW266941   6.353   1.061   9.238  0.9398 -0.5423  0.2914
21834SOL     OW66942   5.555   0.495  11.595 -0.4306  0.0320 -0.3170
21834SOL    HW166943   5.489   0.434  11.627 -1.7699  0.9179 -1.2606
21834SOL    HW266944   5.613   0.509  11.670  0.1785 -2.6630 -0.1928
21835SOL     OW66945   0.859   7.697   9.132  0.1809  0.6682  0.1230
21835SOL    HW166946   0.891   7.607   9.144 -0.0780  0.6760  0.9540
21835SOL    HW266947   0.934   7.752   9.158  0.2736  0.6933 -0.1957
21836SOL     OW66948   5.891   1.666   4.892  0.0551  0.1777 -0.4225
21836SOL    HW166949   5.952   1.595   4.911 -0.2730  0.1245  0.5012
21836SOL    HW266950   5.873   1.659   4.798  1.0948 -0.0936 -0.6059
21837SOL     OW66951   1.562   5.434   4.666  1.0566  0.1461 -0.5472
21837SOL    HW166952   1.561   5.523   4.702  0.0215 -0.0503 -0.0489
21837SOL    HW266953   1.494   5.436   4.598  1.4357 -0.1096 -0.9367
21838SOL     OW66954   1.812   1.940   4.643  0.5551  0.0914 -0.6944
21838SOL    HW166955   1.781   1.858   4.606  0.3211 -0.7269  1.2310
21838SOL    HW266956   1.756   2.007   4.603  1.5333 -0.4473 -3.2246
21839SOL     OW66957   3.361   5.807   2.081  0.1062 -0.0759  0.5892
21839SOL    HW166958   3.394   5.878   2.025  2.5780 -2.0251 -0.6058
21839SOL    HW266959   3.275   5.787   2.044 -0.1838  1.5815  0.2819
21840SOL     OW66960   4.014   6.133  10.255 -0.2574 -0.5885 -1.1071
21840SOL    HW166961   4.091   6.181  10.226 -1.1880  1.6830 -0.1189
21840SOL    HW266962   4.040   6.041  10.252  2.3477  0.0675 -1.1309
21841SOL     OW66963   5.310   2.470   9.867  0.3595  0.6046  0.3009
21841SOL    HW166964   5.370   2.429   9.805 -0.3352 -0.6933  0.4568
21841SOL    HW266965   5.333   2.432   9.952  1.2878  2.3437  0.8928
21842SOL     OW66966   5.596   5.166   8.636  0.0122 -0.1662 -0.5276
21842SOL    HW166967   5.536   5.209   8.576 -0.3938  1.2861  0.8643
21842SOL    HW266968   5.553   5.169   8.721  0.1816 -2.9568 -0.2350
21843SOL     OW66969   6.290   2.249   1.637  0.0769 -0.1574 -0.1412
21843SOL    HW166970   6.220   2.218   1.581 -1.0876 -2.1806  2.2357
21843SOL    HW266971   6.286   2.345   1.630 -1.1811 -0.2993 -2.0266
21844SOL     OW66972   0.734   3.441   1.565 -0.9160  0.2783 -0.4455
21844SOL    HW166973   0.778   3.483   1.491  0.4083  0.9156  0.6659
21844SOL    HW266974   0.746   3.347   1.550  1.0184  0.4397 -0.0853
21845SOL     OW66975   4.536   6.281   7.150  0.0555 -0.5214 -0.6805
21845SOL    HW166976   4.603   6.213   7.148 -0.9501 -1.7162  1.9419
21845SOL    HW266977   4.464   6.243   7.200 -1.6499  1.5583 -1.3678
21846SOL     OW66978   3.635   7.762  12.392  0.3327 -0.3725 -0.1343
21846SOL    HW166979   3.728   7.740  12.397  0.8172  1.3714 -0.8084
21846SOL    HW266980   3.621   7.784  12.300 -1.0317 -1.6717 -0.2782
21847SOL     OW66981   4.290   2.776   8.915 -0.0922  0.1541 -0.1791
21847SOL    HW166982   4.217   2.744   8.968  0.3458 -0.3600  0.1240
21847SOL    HW266983   4.276   2.737   8.829 -0.2097  0.1012 -0.1362
21848SOL     OW66984   1.006   6.692   0.171 -0.3120  0.0650  0.2144
21848SOL    HW166985   1.096   6.677   0.197 -0.3979  1.9033  1.8583
21848SOL    HW266986   1.009   6.698   0.075  1.2901  0.0116  0.2352
21849SOL     OW66987   1.173   2.929   4.556 -0.0810  0.3461 -0.1531
21849SOL    HW166988   1.127   2.856   4.514 -0.0906  0.6355 -0.6462
21849SOL    HW266989   1.196   2.987   4.484  0.2043  0.6776  0.2070
21850SOL     OW66990   6.679   6.095   3.679 -0.1829 -0.4608 -0.1134
21850SOL    HW166991   6.625   6.017   3.695  1.1640 -1.6469 -1.1534
21850SOL    HW266992   6.705   6.124   3.767 -2.0565 -0.1459  0.3860
21851SOL     OW66993   5.635   2.932   9.187 -0.7276 -0.3460  0.0960
21851SOL    HW166994   5.696   2.860   9.197 -1.0746 -0.6347  0.1492
21851SOL    HW266995   5.581   2.930   9.266  1.1915  1.8418  1.5804
21852SOL     OW66996   1.035   3.216   4.843  0.7964 -0.0208  0.4651
21852SOL    HW166997   0.952   3.245   4.806  0.4014  2.1663  2.8005
21852SOL    HW266998   1.026   3.121   4.850 -1.7546  0.1946  1.0912
21853SOL     OW66999   3.955   7.811   2.475 -0.2758 -0.3610  0.8211
21853SOL    HW167000   3.860   7.796   2.469 -0.1471 -0.9613  0.0684
21853SOL    HW267001   3.993   7.723   2.478  0.3374 -0.1724 -0.5080
21854SOL     OW67002   7.597   6.936   9.890  0.2190  0.0250 -0.2046
21854SOL    HW167003   7.589   6.845   9.864  0.6047  0.0419 -0.3872
21854SOL    HW267004   7.547   6.985   9.825  0.1014 -0.0457 -0.1674
21855SOL     OW67005   0.219   2.438   4.252 -0.0441  0.2423 -0.1198
21855SOL    HW167006   0.140   2.492   4.255 -0.3656 -0.1534 -1.0751
21855SOL    HW267007   0.190   2.352   4.282  0.6235  0.7232  2.1142
21856SOL     OW67008   2.861   0.923   5.212 -0.4341 -0.2501  0.0668
21856SOL    HW167009   2.877   0.969   5.130 -1.7531  3.4505  1.6673
21856SOL    HW267010   2.770   0.894   5.205 -0.3820 -0.4053  0.0308
21857SOL     OW67011   3.678   6.615   3.326  0.1777  0.2047  0.4413
21857SOL    HW167012   3.729   6.584   3.251 -1.2904  0.1567 -0.5571
21857SOL    HW267013   3.625   6.687   3.292  0.9898  1.5737  1.9310
21858SOL     OW67014   2.945   1.068   6.580 -0.0168 -0.3385 -0.4807
21858SOL    HW167015   2.951   1.017   6.661 -1.5933 -0.4523 -0.4163
21858SOL    HW267016   2.920   1.155   6.608 -1.1175 -0.5167 -0.8729
21859SOL     OW67017   7.200   4.960   9.071 -0.4818 -0.1415 -0.0612
21859SOL    HW167018   7.181   5.042   9.117 -1.1749 -1.2253  1.6821
21859SOL    HW267019   7.279   4.927   9.114 -1.3342 -1.3464  0.6318
21860SOL     OW67020   7.377   2.270   0.133  0.2806 -0.0353 -0.1610
21860SOL    HW167021   7.411   2.358   0.121 -0.1458  0.0754 -0.5736
21860SOL    HW267022   7.370   2.235   0.044 -0.4751 -0.1309 -0.0668
21861SOL     OW67023   4.917   7.690  10.136 -0.2993  0.0876  0.4287
21861SOL    HW167024   4.895   7.600  10.158  2.2293 -0.5473  0.6058
21861SOL    HW267025   4.856   7.713  10.066 -1.9383 -1.2387  1.3529
21862SOL     OW67026   0.284   6.505   3.860  0.1784  0.2056  0.5088
21862SOL    HW167027   0.283   6.583   3.917 -0.5153 -0.0641  0.8808
21862SOL    HW267028   0.314   6.434   3.917  1.0118  0.2359  0.1144
21863SOL     OW67029   6.307   1.249   2.768  0.3236 -0.0795  0.2744
21863SOL    HW167030   6.341   1.266   2.856  0.0516 -0.7113  0.5035
21863SOL    HW267031   6.333   1.159   2.750  1.1263  0.3206 -0.6429
21864SOL     OW67032   1.112   5.612   7.183  0.0589 -0.4641 -0.7629
21864SOL    HW167033   1.187   5.633   7.127  0.8422 -1.4281 -0.1052
21864SOL    HW267034   1.138   5.638   7.271 -1.2015  1.1113 -0.7993
21865SOL     OW67035   3.151   0.217   5.920  0.3192 -0.2403 -0.2544
21865SOL    HW167036   3.072   0.268   5.937  0.7628  0.7559 -1.1047
21865SOL    HW267037   3.118   0.135   5.881 -0.2607  1.0222 -2.6269
21866SOL     OW67038   4.919   2.512   9.353  0.0540 -0.2650  0.2506
21866SOL    HW167039   4.876   2.584   9.306  0.5552 -0.1401 -0.0187
21866SOL    HW267040   4.850   2.446   9.363 -0.6036  0.5202  1.1013
21867SOL     OW67041   1.259   0.458   3.601  0.1552  0.0644  0.0852
21867SOL    HW167042   1.298   0.534   3.644 -3.6107  0.1473  4.0522
21867SOL    HW267043   1.325   0.389   3.611  0.7654  0.9400  3.5704
21868SOL     OW67044   4.529   7.473   3.029  1.1602 -0.3418  0.0107
21868SOL    HW167045   4.614   7.434   3.009  1.5672  0.5023  0.0676
21868SOL    HW267046   4.526   7.473   3.125 -0.5141 -3.7907  0.1314
21869SOL     OW67047   2.225   0.350   6.876 -0.4103  0.1142 -0.2556
21869SOL    HW167048   2.247   0.323   6.787  3.4937 -1.2673  0.9213
21869SOL    HW267049   2.278   0.428   6.892 -1.5823  0.7620  0.6749
21870SOL     OW67050   4.337   2.696  12.098 -0.4973  0.3299  0.2253
21870SOL    HW167051   4.299   2.618  12.057  1.0132  0.2229 -1.0555
21870SOL    HW267052   4.321   2.767  12.036 -1.6737  1.0457  1.2919
21871SOL     OW67053   3.479   7.620   3.729  0.0035  0.1716 -0.6178
21871SOL    HW167054   3.411   7.615   3.662  0.1902 -0.2556 -0.7806
21871SOL    HW267055   3.445   7.567   3.801 -0.5997  1.3514  0.0028
21872SOL     OW67056   3.043   2.403   5.838  0.1006 -0.0812 -0.3196
21872SOL    HW167057   2.958   2.437   5.810  0.1468  0.5826  0.3255
21872SOL    HW267058   3.079   2.361   5.759 -0.2910  0.7160 -0.9432
21873SOL     OW67059   3.159   3.599   6.055  0.1896  0.0588  0.3939
21873SOL    HW167060   3.175   3.582   6.147  1.6482 -0.4826  0.0721
21873SOL    HW267061   3.238   3.644   6.024 -0.3050  0.3079 -0.5718
21874SOL     OW67062   6.578   7.344   2.108  0.0836  0.2043 -0.2495
21874SOL    HW167063   6.608   7.254   2.096 -0.0935  0.1486 -0.2760
21874SOL    HW267064   6.617   7.372   2.191  1.4224  0.6332 -0.9862
21875SOL     OW67065   7.450   5.256   6.134  0.0065  0.3308 -0.0885
21875SOL    HW167066   7.459   5.350   6.121  0.3062  0.2556 -0.4606
21875SOL    HW267067   7.435   5.246   6.228  0.8991  0.6895  0.1043
21876SOL     OW67068   0.141   2.671   9.286  0.0461 -0.4078 -0.2316
21876SOL    HW167069   0.138   2.687   9.380  0.9943  0.4678 -0.3320
21876SOL    HW267070   0.097   2.748   9.248  0.8349 -0.0976 -0.5448
21877SOL     OW67071   6.075   7.286   7.478 -0.0960  0.4026 -0.0803
21877SOL    HW167072   5.980   7.295   7.479 -0.1316  0.2132  1.6791
21877SOL    HW267073   6.090   7.197   7.447 -0.6585 -0.5247  2.0973
21878SOL     OW67074   1.413   4.922   5.263  0.5960  0.5998  0.1338
21878SOL    HW167075   1.482   4.987   5.247  1.3732 -0.1129  0.5321
21878SOL    HW267076   1.379   4.944   5.350  1.2116  0.1767  0.4913
21879SOL     OW67077   3.063   4.089   5.605  0.4505  0.2785 -0.2050
21879SOL    HW167078   3.140   4.106   5.659  0.2661  0.5775 -0.0350
21879SOL    HW267079   3.096   4.089   5.515  1.1970 -2.5406 -0.0132
21880SOL     OW67080   7.031   1.076   9.755 -0.6212  0.4546  0.0833
21880SOL    HW167081   7.051   1.164   9.787 -1.6683  0.3697  1.0109
21880SOL    HW267082   6.937   1.066   9.768 -0.9483  0.0359 -2.1468
21881SOL     OW67083   6.916   2.672  10.493  0.5433 -0.0811  0.0546
21881SOL    HW167084   6.937   2.676  10.399  0.2360 -1.4669 -0.0908
21881SOL    HW267085   6.950   2.754  10.528 -1.2367  1.4913 -1.6325
21882SOL     OW67086   3.009   2.610   8.282 -0.3214 -0.6445 -0.2485
21882SOL    HW167087   2.978   2.556   8.355 -0.2931 -0.5589 -0.1723
21882SOL    HW267088   3.102   2.623   8.300 -0.3292 -0.5681 -0.2653
21883SOL     OW67089   1.226   7.234   0.511 -0.2293  0.8006 -0.3455
21883SOL    HW167090   1.256   7.144   0.503 -1.5735  0.2890  0.1229
21883SOL    HW267091   1.165   7.246   0.439 -1.5946  0.6676  0.7415
21884SOL     OW67092   2.449   3.136   9.774  0.4402  0.5660 -0.6685
21884SOL    HW167093   2.440   3.067   9.709  0.6571  0.5392 -0.6710
21884SOL    HW267094   2.543   3.138   9.793  0.0630 -1.7834  2.1728
21885SOL     OW67095   3.682   1.617  11.609 -0.1257 -0.1061 -0.3944
21885SOL    HW167096   3.751   1.551  11.598 -0.4201 -0.2943 -1.1770
21885SOL    HW267097   3.602   1.574  11.579 -0.2919  0.6397 -1.0745
21886SOL     OW67098   6.594   0.005   8.716 -0.0783  0.1627  0.2161
21886SOL    HW167099   6.518   0.027   8.661 -0.5311  1.3896  1.2782
21886SOL    HW267100   6.649   0.083   8.712  0.2161 -0.0059  0.9464
21887SOL     OW67101   1.092   5.034  11.513  0.0166  0.4903  0.3934
21887SOL    HW167102   0.997   5.041  11.518 -0.1941 -1.1362 -0.5486
21887SOL    HW267103   1.109   4.992  11.429  1.5698  0.7411  0.5503
21888SOL     OW67104   7.344   6.856   3.564  0.1017 -0.1411  0.0646
21888SOL    HW167105   7.412   6.923   3.555  1.1182 -1.1843 -0.2634
21888SOL    HW267106   7.331   6.824   3.475 -0.6425 -0.1277  0.1660
21889SOL     OW67107   0.826   0.995   4.821  0.4492 -0.1991 -0.0297
21889SOL    HW167108   0.758   1.010   4.755  0.6318 -0.2277 -0.2265
21889SOL    HW267109   0.843   0.901   4.817 -0.6003 -0.4657  1.1095
21890SOL     OW67110   4.209   6.047  10.973  0.1653  0.2189  0.3524
21890SOL    HW167111   4.117   6.036  10.948 -0.1600  1.8151  0.7276
21890SOL    HW267112   4.224   5.982  11.041  0.1401 -1.9834 -1.6181
21891SOL     OW67113   4.041   2.240  10.283  0.7832 -0.2134 -0.1278
21891SOL    HW167114   4.033   2.239  10.379 -1.1691  2.5972 -0.1504
21891SOL    HW267115   4.134   2.257  10.267  0.7013  2.0629  1.3899
21892SOL     OW67116   5.499   3.456   7.361 -0.3344 -0.5395 -0.4099
21892SOL    HW167117   5.465   3.390   7.302  0.2021 -0.0981 -1.2406
21892SOL    HW267118   5.492   3.417   7.448 -1.0240 -1.2486 -0.7751
21893SOL     OW67119   2.135   2.039  11.330  0.3087  0.2592 -0.2636
21893SOL    HW167120   2.207   2.102  11.324  1.5140 -0.8710  1.4687
21893SOL    HW267121   2.164   1.965  11.277  1.2627 -0.8971  1.7780
21894SOL     OW67122   6.211   0.371   1.374 -0.2673  0.0342  0.0020
21894SOL    HW167123   6.267   0.298   1.399  1.5479  0.7194 -1.8058
21894SOL    HW267124   6.162   0.339   1.299 -0.6432  0.1720  0.1883
21895SOL     OW67125   6.901   4.606   3.424  0.4011  0.1102  0.6772
21895SOL    HW167126   6.950   4.606   3.506 -0.5956 -0.4494  1.2850
21895SOL    HW267127   6.850   4.687   3.427  0.2732  0.0298  0.6600
21896SOL     OW67128   4.228   3.380   4.891 -0.0011  0.0595 -0.1995
21896SOL    HW167129   4.213   3.312   4.957 -0.2228  1.0946  0.8764
21896SOL    HW267130   4.144   3.387   4.845  0.2993 -0.9960 -0.9210
21897SOL     OW67131   2.809   4.410   7.779  0.6081 -0.0494  0.4121
21897SOL    HW167132   2.862   4.362   7.715  0.0519 -1.5893  1.0548
21897SOL    HW267133   2.793   4.494   7.737  1.6418 -0.3985 -0.7644
21898SOL     OW67134   1.060   3.947   8.964 -0.2351 -0.0753 -0.0387
21898SOL    HW167135   1.082   3.917   8.876  0.9500 -1.7304  0.7703
21898SOL    HW267136   0.985   3.892   8.989  0.3818 -0.6751  0.5279
21899SOL     OW67137   2.619   1.207   3.778  0.3225 -0.3913  0.0102
21899SOL    HW167138   2.560   1.269   3.821  2.3624  0.3912  1.8600
21899SOL    HW267139   2.563   1.133   3.754 -2.3031  2.2155 -2.6702
21900SOL     OW67140   2.364   6.496   1.509 -0.2836  0.1863 -0.0604
21900SOL    HW167141   2.286   6.500   1.453  0.0608 -0.0773 -0.5771
21900SOL    HW267142   2.342   6.547   1.586 -0.3096  1.6685 -1.0097
21901SOL     OW67143   6.403   7.451   5.129 -0.1132  0.8030 -0.1125
21901SOL    HW167144   6.352   7.372   5.145 -1.1691  1.4853 -0.0132
21901SOL    HW267145   6.431   7.480   5.216  1.5206 -0.2389 -0.2549
21902SOL     OW67146   2.158   2.903   7.539  0.2491  0.0276  0.4180
21902SOL    HW167147   2.097   2.975   7.559 -0.1319 -0.4396  1.0025
21902SOL    HW267148   2.103   2.837   7.496  0.4032 -0.2611  0.6562
21903SOL     OW67149   2.436   1.989   8.911 -0.6667  0.0187  0.1286
21903SOL    HW167150   2.511   1.935   8.887 -0.1442  0.5231  0.6188
21903SOL    HW267151   2.473   2.067   8.953 -1.3186  1.5075 -1.9121
21904SOL     OW67152   2.507   1.219   8.217  0.4745 -0.4282  0.5016
21904SOL    HW167153   2.577   1.246   8.277 -0.1300  1.4321  0.4220
21904SOL    HW267154   2.427   1.254   8.255  0.1782  1.7736 -1.8756
21905SOL     OW67155   3.976   5.255   8.998 -0.3643  0.3502 -0.3056
21905SOL    HW167156   3.975   5.196   8.922  0.8511 -0.1120  0.0308
21905SOL    HW267157   3.997   5.341   8.961 -0.5458  0.2806 -0.5799
21906SOL     OW67158   6.006   0.233   8.952  0.5862 -0.3765  0.2807
21906SOL    HW167159   5.976   0.173   8.884  0.3984 -0.3972  0.3820
21906SOL    HW267160   5.973   0.196   9.034  1.0029 -0.4707  0.4079
21907SOL     OW67161   1.142   7.009   0.827  0.1874 -0.4731  0.2124
21907SOL    HW167162   1.218   6.966   0.788  0.9383 -0.5072  1.6287
21907SOL    HW267163   1.138   6.973   0.916  0.7903  2.2374  1.4518
21908SOL     OW67164   6.722   5.902   3.942  0.2994 -0.3384 -0.4427
21908SOL    HW167165   6.754   5.988   3.917 -0.1615 -0.0569 -0.0829
21908SOL    HW267166   6.758   5.888   4.030 -1.0809  0.2641  0.2387
21909SOL     OW67167   2.245   7.286   6.023  0.1742  0.0469  0.0229
21909SOL    HW167168   2.254   7.191   6.016  2.3947  0.2595 -1.0021
21909SOL    HW267169   2.307   7.311   6.091 -0.4823  0.7476  0.3726
21910SOL     OW67170   4.982   2.754   6.629  0.0814 -0.1231 -0.4748
21910SOL    HW167171   5.023   2.829   6.586 -0.9851  0.1712 -1.0145
21910SOL    HW267172   4.972   2.689   6.558 -0.9172  0.0414 -0.4952
21911SOL     OW67173   5.382   6.262  10.738  0.1804 -0.2511 -0.2494
21911SOL    HW167174   5.416   6.190  10.790 -0.9802 -0.6524 -0.0167
21911SOL    HW267175   5.418   6.341  10.779  0.0828 -0.6162  0.5388
21912SOL     OW67176   2.080   2.748   0.171  0.1952 -0.3322 -0.6780
21912SOL    HW167177   2.054   2.835   0.201  0.1251 -0.1631 -1.2096
21912SOL    HW267178   1.997   2.705   0.148 -0.2670 -2.0889  3.4431
21913SOL     OW67179   5.007   4.818  11.890  0.2577  0.0312 -0.5898
21913SOL    HW167180   4.971   4.857  11.810 -0.7630  0.6602  0.1564
21913SOL    HW267181   5.073   4.880  11.919 -0.5908  0.6841 -0.0105
21914SOL     OW67182   6.290   0.891   5.941 -0.1305 -0.0100 -0.1258
21914SOL    HW167183   6.289   0.795   5.936 -1.0832  0.0448 -2.0144
21914SOL    HW267184   6.366   0.911   5.995 -0.2402 -1.8391  0.8128
21915SOL     OW67185   5.450   0.834   0.765 -0.5244  0.3650 -0.1601
21915SOL    HW167186   5.398   0.879   0.699 -2.4709  0.1207  1.1242
21915SOL    HW267187   5.451   0.742   0.736 -1.1251  0.3079 -0.0038
21916SOL     OW67188   3.485   2.594   3.292 -0.2005 -0.2340  0.3130
21916SOL    HW167189   3.573   2.612   3.324  0.0613 -1.0660  0.1017
21916SOL    HW267190   3.431   2.662   3.331  0.6594  0.7718 -0.1918
21917SOL     OW67191   3.874   3.784   6.881 -0.5108 -0.2705  0.3830
21917SOL    HW167192   3.914   3.721   6.821 -2.8647 -1.6016  0.0989
21917SOL    HW267193   3.810   3.732   6.931 -1.5009  1.6089  1.1661
21918SOL     OW67194   7.301   3.906  10.806 -0.1787  0.1006 -0.1168
21918SOL    HW167195   7.217   3.887  10.848  0.1921 -0.4473  0.4038
21918SOL    HW267196   7.291   3.876  10.716 -0.9189  1.0965 -0.3939
21919SOL     OW67197   6.472   1.821   3.522 -0.5505  0.0805  0.5575
21919SOL    HW167198   6.460   1.736   3.564 -1.2237  0.1212  0.4686
21919SOL    HW267199   6.476   1.802   3.429 -2.0853  0.2447  0.4214
21920SOL     OW67200   7.414   4.781   3.150 -0.0041  0.0637  0.2568
21920SOL    HW167201   7.363   4.785   3.231  2.4037 -0.1180  1.9165
21920SOL    HW267202   7.504   4.797   3.179  1.1212 -1.2485 -2.2336
21921SOL     OW67203   1.457   6.618   5.807  0.5314  0.3036  0.0542
21921SOL    HW167204   1.432   6.646   5.894 -1.8130  0.3845 -0.5730
21921SOL    HW267205   1.524   6.550   5.821 -0.8429 -0.7300  1.9950
21922SOL     OW67206   3.970   7.285  10.813 -0.3572  0.1718 -0.2022
21922SOL    HW167207   3.933   7.332  10.888 -0.6530  2.4332 -1.6696
21922SOL    HW267208   4.064   7.300  10.820 -0.2552 -0.6624  0.3560
21923SOL     OW67209   7.170   1.604   1.890  0.7184 -0.2131  0.0289
21923SOL    HW167210   7.107   1.648   1.833  2.6710  1.7085 -0.7830
21923SOL    HW267211   7.205   1.673   1.946  1.3340 -1.4290  1.1938
21924SOL     OW67212   0.564   2.839  10.791  0.0138  0.0526 -0.0455
21924SOL    HW167213   0.496   2.802  10.847  0.6984 -0.6946  0.3052
21924SOL    HW267214   0.516   2.876  10.716 -0.8645  0.6240  0.7774
21925SOL     OW67215   2.930   5.398  12.268 -0.7738 -0.3560 -0.4234
21925SOL    HW167216   2.969   5.370  12.351 -1.7440  1.8737  0.8852
21925SOL    HW267217   3.005   5.421  12.213 -0.1396  0.2076  0.6388
21926SOL     OW67218   3.580   6.944   8.325  0.2200  0.2433 -0.6291
21926SOL    HW167219   3.606   6.880   8.392  0.7683  2.3953  1.3134
21926SOL    HW267220   3.662   6.970   8.283 -0.1008 -0.9428 -2.0730
21927SOL     OW67221   7.424   7.826   8.555  0.0684  0.1643 -0.6531
21927SOL    HW167222   7.439   7.748   8.610 -1.3750 -0.3725 -0.9712
21927SOL    HW267223   7.393   7.790   8.472  0.4890  1.0509 -1.1992
21928SOL     OW67224   6.294   6.574   2.140 -0.4202 -0.0565 -0.2841
21928SOL    HW167225   6.237   6.563   2.064  0.4417 -1.4169 -0.7815
21928SOL    HW267226   6.272   6.499   2.196 -0.1774  0.2530  0.2286
21929SOL     OW67227   6.085   3.554   1.616 -0.5879  0.2903  0.4056
21929SOL    HW167228   6.151   3.572   1.682 -0.1266  1.0362 -0.2363
21929SOL    HW267229   6.030   3.486   1.654 -0.2069  0.5593  1.4585
21930SOL     OW67230   3.517   6.070   7.617 -0.5125  0.0292 -0.2593
21930SOL    HW167231   3.443   6.093   7.561 -0.8153 -1.1648 -0.3697
21930SOL    HW267232   3.480   6.012   7.684  0.0079  0.7433  0.6844
21931SOL     OW67233   3.098   3.313   7.510 -0.0892  0.1126 -0.6965
21931SOL    HW167234   3.014   3.356   7.498 -0.0042  0.7617  0.8164
21931SOL    HW267235   3.111   3.263   7.430 -1.6251  0.4787 -1.2064
21932SOL     OW67236   3.371   6.846   9.725 -0.3554  0.4082  0.1168
21932SOL    HW167237   3.448   6.802   9.688 -0.9271 -2.4782  2.0477
21932SOL    HW267238   3.304   6.837   9.658 -0.2050 -1.0303  0.1194
21933SOL     OW67239   2.726   1.482   3.794  0.6241 -0.2535  0.2427
21933SOL    HW167240   2.634   1.504   3.783  0.8098  0.5816  0.2736
21933SOL    HW267241   2.726   1.406   3.853  0.0146  0.6489  1.4500
21934SOL     OW67242   0.827   5.476   9.535  0.4898 -0.1049  0.0674
21934SOL    HW167243   0.887   5.477   9.610  0.8937 -0.1081 -0.2530
21934SOL    HW267244   0.769   5.550   9.549 -1.5088 -1.8927  2.0463
21935SOL     OW67245   5.656   1.738  10.168  0.3481 -0.1220  0.1753
21935SOL    HW167246   5.699   1.655  10.146  1.1514 -0.0551  1.3695
21935SOL    HW267247   5.654   1.739  10.264 -2.4903 -0.1843  0.2006
21936SOL     OW67248   6.599   1.741   3.870 -0.0796  0.4106 -0.1477
21936SOL    HW167249   6.512   1.779   3.883 -0.2159  0.4088 -0.9644
21936SOL    HW267250   6.649   1.767   3.947 -0.4688  1.3847 -0.2129
21937SOL     OW67251   3.018   5.257   0.056 -0.4565 -0.0741 -0.3836
21937SOL    HW167252   3.016   5.166   0.086 -2.1184  0.7868  2.5851
21937SOL    HW267253   3.110   5.275   0.040  0.0875 -1.8648  0.4352
21938SOL     OW67254   1.041   7.925  10.480 -0.5061 -0.2536 -0.3151
21938SOL    HW167255   0.983   7.909  10.555 -0.2934 -1.4363 -0.3763
21938SOL    HW267256   1.012   8.009  10.445  0.5819  1.2502  2.1610
21939SOL     OW67257   6.452   2.335   9.029  0.4984 -1.2426  0.1226
21939SOL    HW167258   6.438   2.403   8.963  1.9829 -1.7080 -0.7077
21939SOL    HW267259   6.508   2.377   9.095 -2.6667 -0.0671  2.3412
21940SOL     OW67260   5.147   7.638   1.246 -0.4425  0.1900  0.3595
21940SOL    HW167261   5.204   7.600   1.313  0.6997  0.4101 -0.4583
21940SOL    HW267262   5.169   7.590   1.166  0.8725  2.3383 -0.6669
21941SOL     OW67263   7.216   1.467  12.393 -0.3112  0.0501  0.4736
21941SOL    HW167264   7.126   1.453  12.364  0.0795 -0.6763 -0.4493
21941SOL    HW267265   7.210   1.466  12.488 -1.4355  1.1123  0.4383
21942SOL     OW67266   2.471   4.947   8.342 -0.5428 -0.1890  0.0823
21942SOL    HW167267   2.404   4.893   8.300  0.4145 -1.2744 -0.1068
21942SOL    HW267268   2.519   4.986   8.270 -0.9842  0.6327  0.2188
21943SOL     OW67269   7.155   4.991   0.137  0.2175 -0.2606 -0.0876
21943SOL    HW167270   7.064   4.975   0.110  0.4771  0.4516 -1.4803
21943SOL    HW267271   7.148   5.050   0.212 -0.4905  2.7751 -2.3056
21944SOL     OW67272   7.313   4.855   9.676 -0.5724 -1.1074 -0.1583
21944SOL    HW167273   7.346   4.939   9.645 -2.4422 -0.7201 -1.2675
21944SOL    HW267274   7.370   4.832   9.749 -0.8378  1.7994  1.0982
21945SOL     OW67275   2.241   2.137   5.622  0.0174 -0.3982 -0.0875
21945SOL    HW167276   2.156   2.118   5.584  0.5012 -1.5121 -0.6582
21945SOL    HW267277   2.296   2.161   5.547  0.6714 -1.4819  0.0233
21946SOL     OW67278   1.730   6.039   8.500  0.1718  0.0848  0.1890
21946SOL    HW167279   1.782   6.025   8.580 -1.2808  0.0736  1.1777
21946SOL    HW267280   1.678   6.117   8.519  0.1499  0.3545 -0.9471
21947SOL     OW67281   5.761   1.386  11.863  0.1557 -0.1826 -0.1096
21947SOL    HW167282   5.708   1.393  11.943  2.1122  0.9996  1.1665
21947SOL    HW267283   5.791   1.475  11.847  0.3511 -0.5337 -1.8221
21948SOL     OW67284   1.931   1.733   4.162 -0.0806  0.1816  0.1229
21948SOL    HW167285   1.978   1.665   4.211  1.2678  0.2321 -1.0371
21948SOL    HW267286   1.971   1.815   4.190  2.1340  0.1073 -2.3740
21949SOL     OW67287   2.673   0.110   2.356 -0.1513 -0.3820 -0.2433
21949SOL    HW167288   2.707   0.023   2.335 -1.4056 -0.6026 -1.5164
21949SOL    HW267289   2.746   0.154   2.400  0.2919 -2.2783  1.0615
21950SOL     OW67290   1.362   3.175  10.061  0.3458 -0.5122 -0.2448
21950SOL    HW167291   1.385   3.143  10.148  1.8843  0.1217 -0.3942
21950SOL    HW267292   1.306   3.251  10.077  0.4207 -0.5451  0.1764
21951SOL     OW67293   7.080   6.568   3.331 -0.0161 -0.3793  0.4496
21951SOL    HW167294   7.122   6.595   3.250  0.9138 -0.1449  0.9991
21951SOL    HW267295   7.041   6.483   3.310  0.2212 -0.3225 -0.2407
21952SOL     OW67296   1.596   2.733   4.133  0.1394  0.4054 -0.2548
21952SOL    HW167297   1.616   2.820   4.099  0.3117 -0.1341 -1.5940
21952SOL    HW267298   1.681   2.692   4.148  0.0982  1.0116  1.9448
21953SOL     OW67299   5.569   0.205  11.288  0.5025 -0.1980 -0.4646
21953SOL    HW167300   5.598   0.124  11.248 -0.5505  0.2715 -2.2910
21953SOL    HW267301   5.639   0.229  11.349 -0.4042 -3.9345  2.3805
21954SOL     OW67302   2.739   0.364   9.213 -0.7057 -1.0790 -0.1332
21954SOL    HW167303   2.746   0.400   9.301 -3.4999  2.7364 -1.2017
21954SOL    HW267304   2.822   0.387   9.171 -0.6479  0.1267  0.5955
21955SOL     OW67305   2.015   2.497   9.924  0.2355  0.2602  0.3602
21955SOL    HW167306   2.045   2.500   9.834  2.0810 -0.7962  0.8819
21955SOL    HW267307   1.987   2.407   9.937 -0.6912  0.5756  0.6750
21956SOL     OW67308   4.069   0.327  10.681  0.0191  0.1299  0.3831
21956SOL    HW167309   3.997   0.336  10.743 -0.3389 -0.1717  0.0147
21956SOL    HW267310   4.046   0.251  10.628 -0.3481  1.1670 -1.0047
21957SOL     OW67311   7.447   0.103  11.568  0.5198  0.0144 -0.1734
21957SOL    HW167312   7.504   0.173  11.536 -0.7644  0.7094 -1.0625
21957SOL    HW267313   7.434   0.046  11.492 -1.0367  0.6225 -0.3912
21958SOL     OW67314   0.694   7.829   4.788  0.2865  0.4725  0.2979
21958SOL    HW167315   0.661   7.903   4.839  0.2909  0.4690  0.3055
21958SOL    HW267316   0.686   7.857   4.696  0.2924  0.4840  0.3010
21959SOL     OW67317   3.525   7.011   0.944  0.3802 -0.2671  0.2436
21959SOL    HW167318   3.479   7.066   0.881  1.7298  0.6052 -0.0070
21959SOL    HW267319   3.498   6.921   0.922  0.4813  0.0548 -1.2715
21960SOL     OW67320   0.293   5.804   0.420  0.5780  0.3775  0.6953
21960SOL    HW167321   0.292   5.708   0.415  0.2661  0.4484 -0.8725
21960SOL    HW267322   0.241   5.833   0.346  1.5468  1.7980  0.5313
21961SOL     OW67323   4.408   6.123   6.520  0.4068  0.1410 -0.0837
21961SOL    HW167324   4.386   6.038   6.482 -0.0768  0.4337 -0.4799
21961SOL    HW267325   4.330   6.148   6.570  0.1828  0.7700 -0.7350
21962SOL     OW67326   5.809   4.786   7.390 -0.2995 -0.4089  0.0883
21962SOL    HW167327   5.878   4.761   7.328 -0.4696 -1.5329  0.3290
21962SOL    HW267328   5.849   4.855   7.443 -0.0017  0.2684 -0.9803
21963SOL     OW67329   5.663   6.642   9.780 -0.2508  0.2272 -0.1593
21963SOL    HW167330   5.641   6.551   9.761  0.1586 -0.0231  0.5245
21963SOL    HW267331   5.707   6.673   9.700  0.1599 -0.3631 -0.1729
21964SOL     OW67332   3.398   0.901   0.191  0.1987  0.4571  0.1091
21964SOL    HW167333   3.351   0.877   0.271 -1.4755 -0.1112 -0.9844
21964SOL    HW267334   3.488   0.913   0.218 -0.5647  1.5971  2.3267
21965SOL     OW67335   4.755   6.704   7.093  0.2341 -0.6514 -0.1359
21965SOL    HW167336   4.717   6.662   7.016  1.0681  0.1708 -1.0212
21965SOL    HW267337   4.705   6.668   7.167 -2.2531  0.3392 -1.2262
21966SOL     OW67338   5.624   3.930   7.956 -0.6327 -0.5992  0.4520
21966SOL    HW167339   5.649   3.991   7.887  3.4017 -2.7336 -0.2426
21966SOL    HW267340   5.543   3.890   7.924 -1.5620  1.9094 -0.5938
21967SOL     OW67341   5.338   3.725   9.415 -0.0760  0.5720 -0.4198
21967SOL    HW167342   5.384   3.686   9.489 -1.5820 -2.2392 -0.8129
21967SOL    HW267343   5.247   3.730   9.443 -0.3374  1.3538 -1.3609
21968SOL     OW67344   6.041   2.114   5.521  0.6068 -0.1747  0.1557
21968SOL    HW167345   6.117   2.166   5.495 -1.2025  2.3679 -0.4884
21968SOL    HW267346   6.022   2.059   5.446  1.0621  0.0994 -0.1655
21969SOL     OW67347   0.164   1.866   8.422 -0.3401 -0.2902 -0.6617
21969SOL    HW167348   0.147   1.802   8.353 -0.6385 -0.8999 -0.0418
21969SOL    HW267349   0.077   1.893   8.452 -0.2208 -0.4058 -0.1947
21970SOL     OW67350   3.054   3.074   2.132  0.1586 -0.0399 -0.2165
21970SOL    HW167351   3.075   2.989   2.092 -0.2200  0.4096 -1.3980
21970SOL    HW267352   2.981   3.056   2.190  1.3161 -0.8881  1.0452
21971SOL     OW67353   0.526   5.591   6.929 -0.9170 -0.1123  0.8610
21971SOL    HW167354   0.517   5.573   6.836  2.0266 -0.2113  0.5079
21971SOL    HW267355   0.514   5.686   6.936  1.6706  0.3594 -0.1361
21972SOL     OW67356   3.382   2.935   9.593  0.5436 -0.5451  0.2114
21972SOL    HW167357   3.317   2.988   9.638 -0.5723 -0.7545 -1.0922
21972SOL    HW267358   3.429   2.890   9.663  0.5262  1.0117  1.2586
21973SOL     OW67359   5.398   5.473  10.134  0.1098 -0.0403 -0.2642
21973SOL    HW167360   5.480   5.517  10.112 -0.0977 -0.0476 -1.0605
21973SOL    HW267361   5.352   5.462  10.051 -0.3204 -0.8103  0.0575
21974SOL     OW67362   6.281   5.616   6.101 -0.1225 -0.2580 -0.3455
21974SOL    HW167363   6.275   5.637   6.008 -0.1871  1.0247 -0.0683
21974SOL    HW267364   6.356   5.667   6.132  0.1291 -0.9642  0.2336
21975SOL     OW67365   5.051   7.059   2.450 -0.0121  0.0289 -0.2954
21975SOL    HW167366   4.980   7.023   2.502 -0.4842  0.6040 -0.5286
21975SOL    HW267367   5.049   7.008   2.369  0.3785 -0.5057  0.0249
21976SOL     OW67368   7.095   5.296  10.044 -0.9605  0.4810  0.0857
21976SOL    HW167369   7.060   5.216  10.085 -1.8100  0.9339  0.2800
21976SOL    HW267370   7.152   5.264   9.974 -2.1058 -0.3086 -0.5235
21977SOL     OW67371   3.334   6.537   6.007 -0.2814 -0.0278 -0.1901
21977SOL    HW167372   3.387   6.588   6.068  0.0929 -0.5715 -0.0537
21977SOL    HW267373   3.357   6.570   5.920 -2.0594  1.9336  0.0133
21978SOL     OW67374   2.292   7.162   2.373  0.0022 -0.2061  0.9110
21978SOL    HW167375   2.203   7.128   2.371  0.3544 -1.2965  2.0185
21978SOL    HW267376   2.342   7.103   2.317  0.3585 -0.6960  1.7313
21979SOL     OW67377   5.414   0.516   2.253  0.2683 -0.2838  0.3866
21979SOL    HW167378   5.429   0.503   2.159 -0.3074  0.9327  0.1022
21979SOL    HW267379   5.453   0.439   2.294 -1.9416 -2.3022 -1.0315
21980SOL     OW67380   3.323   0.612   7.291 -0.2119  0.2229 -0.0552
21980SOL    HW167381   3.410   0.573   7.284 -0.5040 -0.4667  0.0614
21980SOL    HW267382   3.264   0.544   7.257 -0.7270  0.5785  0.1182
21981SOL     OW67383   6.512   4.485   1.648 -0.5075  0.5700  0.1393
21981SOL    HW167384   6.573   4.521   1.713 -0.4793 -0.0330  0.4564
21981SOL    HW267385   6.426   4.497   1.687 -0.3935 -1.3019  1.0779
21982SOL     OW67386   5.532   4.859   8.451 -0.4290 -0.2844 -0.2458
21982SOL    HW167387   5.531   4.828   8.361 -1.1212 -2.0821  0.3353
21982SOL    HW267388   5.442   4.888   8.467 -0.5316 -0.7725  0.1018
21983SOL     OW67389   2.362   2.581   4.747  0.3350 -0.0065 -0.1945
21983SOL    HW167390   2.356   2.659   4.801 -2.1238 -0.8592  0.9283
21983SOL    HW267391   2.428   2.527   4.789 -1.0589 -0.3570  1.6667
21984SOL     OW67392   5.786   3.613   8.938 -0.0324  0.3976  0.1254
21984SOL    HW167393   5.749   3.683   8.992  0.2272  0.0713  0.7336
21984SOL    HW267394   5.854   3.656   8.886 -0.7453  0.8516 -0.4576
21985SOL     OW67395   0.476   5.633   0.745 -0.2516  0.0575 -0.0395
21985SOL    HW167396   0.541   5.621   0.676  1.2548 -0.8030  1.4468
21985SOL    HW267397   0.398   5.588   0.713 -0.1633  1.0895 -1.8530
21986SOL     OW67398   5.403   7.478   3.072 -0.2987  0.2319 -0.7903
21986SOL    HW167399   5.324   7.425   3.078 -0.7343  0.9576  0.1167
21986SOL    HW267400   5.385   7.540   3.001  0.1592 -0.7142 -1.7584
21987SOL     OW67401   6.451   1.332   2.014  0.0261  0.9690  0.6617
21987SOL    HW167402   6.461   1.316   1.920  1.1292 -0.4871  0.9957
21987SOL    HW267403   6.357   1.321   2.030 -0.0997  0.7469 -0.1781
21988SOL     OW67404   6.530   7.854   6.469 -0.5831 -0.1272  0.2715
21988SOL    HW167405   6.458   7.871   6.530 -1.2113  0.0296 -0.4832
21988SOL    HW267406   6.566   7.940   6.450 -0.5505 -0.1481  0.2377
21989SOL     OW67407   4.469   0.422   3.909  0.0991 -0.2404  0.0798
21989SOL    HW167408   4.460   0.352   3.974  1.9442  0.2594  0.9444
21989SOL    HW267409   4.497   0.377   3.829  1.1282 -0.5371  0.5894
21990SOL     OW67410   6.702   5.784   1.099  0.3895  0.8782 -0.2556
21990SOL    HW167411   6.698   5.818   1.189  1.0322 -1.5670  0.7898
21990SOL    HW267412   6.649   5.845   1.048 -2.2496  0.9642  2.2790
21991SOL     OW67413   5.523   4.738   1.126  0.3023  0.0279  0.0517
21991SOL    HW167414   5.494   4.648   1.143 -0.2495  0.1401 -0.2925
21991SOL    HW267415   5.480   4.762   1.044  2.5509 -0.3686 -1.3591
21992SOL     OW67416   4.945   6.145   0.250  0.3278  0.1203  0.5916
21992SOL    HW167417   4.992   6.092   0.313  0.7264 -1.0235 -0.6297
21992SOL    HW267418   5.011   6.173   0.187 -0.2712  0.2040 -0.0175
21993SOL     OW67419   7.264   4.582   4.583  0.3280 -0.3863  0.1441
21993SOL    HW167420   7.263   4.633   4.664 -2.5976 -1.9563  1.2222
21993SOL    HW267421   7.334   4.519   4.595  3.2319  2.3767 -0.7362
21994SOL     OW67422   5.942   6.108   8.856 -0.1775 -0.5145 -0.1655
21994SOL    HW167423   5.974   6.196   8.874  0.1858 -0.8173  0.7089
21994SOL    HW267424   5.877   6.091   8.923  0.9343 -1.5185  0.7039
21995SOL     OW67425   6.503   1.695   1.518  0.0118  0.2380 -0.2503
21995SOL    HW167426   6.597   1.689   1.502 -0.2082  0.3879 -1.7504
21995SOL    HW267427   6.473   1.604   1.522  0.1951  0.1922  0.1086
21996SOL     OW67428   0.702   3.246  11.346  0.2769 -0.0748  0.0477
21996SOL    HW167429   0.786   3.266  11.389 -0.0471  1.0905  0.1848
21996SOL    HW267430   0.670   3.168  11.391  1.3772 -0.6466 -0.1370
21997SOL     OW67431   0.109   6.605   5.655 -0.4493 -0.1715  0.2760
21997SOL    HW167432   0.170   6.580   5.725 -1.0333 -0.7592  0.5906
21997SOL    HW267433   0.155   6.583   5.574 -0.5998 -1.5033  0.5296
21998SOL     OW67434   5.748   5.148   9.501 -0.1974 -0.1460  0.3592
21998SOL    HW167435   5.776   5.211   9.435  1.2130 -0.6914  0.3922
21998SOL    HW267436   5.773   5.187   9.585 -2.7246  0.9215  0.6952
21999SOL     OW67437   7.368   6.789  11.974  0.6112  0.5068 -0.1399
21999SOL    HW167438   7.363   6.780  12.069 -1.7078  0.5957 -0.1872
21999SOL    HW267439   7.286   6.750  11.942  2.1984 -1.3511 -2.2866
22000SOL     OW67440   1.241   0.596   6.686 -0.3113 -0.3856 -0.3439
22000SOL    HW167441   1.209   0.570   6.600 -3.1491  0.1173  0.4685
22000SOL    HW267442   1.215   0.688   6.695 -0.9888 -0.7158  1.4282
22001SOL     OW67443   4.951   6.398  12.330  0.4788 -0.2449 -0.4448
22001SOL    HW167444   4.893   6.434  12.262 -0.6417 -1.0858  0.0375
22001SOL    HW267445   4.916   6.311  12.349  0.3435  0.2155  1.6978
22002SOL     OW67446   6.562   3.377   6.531  0.4095 -0.1459  0.6437
22002SOL    HW167447   6.478   3.413   6.500  1.1075  0.3862 -0.7042
22002SOL    HW267448   6.559   3.285   6.506  0.6979  0.1371 -0.5035
22003SOL     OW67449   0.593   0.662   2.239  0.1080  0.6249  0.1078
22003SOL    HW167450   0.662   0.680   2.302 -0.4678  2.1938  0.3344
22003SOL    HW267451   0.610   0.572   2.211  1.5957  0.6013  0.9387
22004SOL     OW67452   4.298   1.854   6.764 -0.2811  0.0308 -0.6414
22004SOL    HW167453   4.390   1.839   6.782 -0.3529 -1.2409 -1.1835
22004SOL    HW267454   4.297   1.906   6.683 -0.0325  2.2416  0.7080
22005SOL     OW67455   6.026   6.371  10.363  0.1680  0.1409 -0.0573
22005SOL    HW167456   5.943   6.417  10.350  0.4409  0.9771  1.0489
22005SOL    HW267457   6.072   6.382  10.280 -1.5302 -1.9160 -1.3823
22006SOL     OW67458   4.503   7.321   2.801 -0.2124 -0.3329  0.2891
22006SOL    HW167459   4.541   7.375   2.732 -1.4620  0.0903 -0.0904
22006SOL    HW267460   4.476   7.384   2.868 -0.4626 -0.5949  0.4388
22007SOL     OW67461   4.046   1.454   1.810  0.4826  0.1920 -0.4578
22007SOL    HW167462   4.021   1.431   1.900  1.2662 -1.9167 -0.7185
22007SOL    HW267463   4.004   1.538   1.794  0.0364  0.4479  1.7587
22008SOL     OW67464   6.262   4.358   3.061 -0.6507 -0.1129 -0.2515
22008SOL    HW167465   6.335   4.298   3.076  0.2647  1.2271  1.0408
22008SOL    HW267466   6.244   4.395   3.148 -1.4346  1.1518 -0.9186
22009SOL     OW67467   4.511   5.253   9.751  0.6570 -0.0253 -0.0411
22009SOL    HW167468   4.582   5.189   9.748  0.8898  0.0921  1.7622
22009SOL    HW267469   4.466   5.235   9.833  0.4320  1.7897  0.2773
22010SOL     OW67470   2.062   0.103  10.159 -0.6499  0.1704 -0.4580
22010SOL    HW167471   1.998   0.121  10.090 -0.1389 -2.0355 -1.6024
22010SOL    HW267472   2.039   0.016  10.191  1.2482 -0.3409 -0.3451
22011SOL     OW67473   5.230   5.042  10.002  0.4208  0.1258  0.5399
22011SOL    HW167474   5.206   5.103  10.072  0.4864  0.6212  0.1363
22011SOL    HW267475   5.324   5.027  10.016  0.5101  0.4960  0.3564
22012SOL     OW67476   3.398   5.891   6.021  0.1602 -0.4184  0.2920
22012SOL    HW167477   3.371   5.852   6.105  0.0325  1.0491  0.9609
22012SOL    HW267478   3.364   5.830   5.955 -1.5242 -0.5884  1.2393
22013SOL     OW67479   5.245   3.840   2.528 -0.3993  0.2281  0.5643
22013SOL    HW167480   5.213   3.753   2.504 -1.1270  0.8778 -0.8936
22013SOL    HW267481   5.318   3.822   2.587 -0.0485 -1.3924 -0.2947
22014SOL     OW67482   1.182   1.600   3.174 -0.5222  0.0261  0.4393
22014SOL    HW167483   1.238   1.549   3.233  0.2394 -0.3225 -0.5533
22014SOL    HW267484   1.219   1.688   3.174 -1.0666  0.2594  1.1680
22015SOL     OW67485   3.217   2.976   6.180 -0.3385 -0.4066  0.0703
22015SOL    HW167486   3.203   2.885   6.207  0.8900 -0.5819  0.1700
22015SOL    HW267487   3.215   3.026   6.261 -0.6378 -0.3899  0.0543
22016SOL     OW67488   3.817   6.149   2.557  0.3515 -0.9745  0.1578
22016SOL    HW167489   3.827   6.079   2.623 -0.1302  0.6209  2.0272
22016SOL    HW267490   3.794   6.102   2.477 -0.4306 -2.9586  1.4353
22017SOL     OW67491   4.089   3.861  11.586  0.0653  0.1348  0.4608
22017SOL    HW167492   4.027   3.849  11.658 -1.6671  1.8591 -0.6722
22017SOL    HW267493   4.035   3.885  11.511  1.6581 -2.7568 -1.8289
22018SOL     OW67494   5.715   6.429   6.454  0.2207 -0.0199  0.0220
22018SOL    HW167495   5.759   6.487   6.516 -0.2525 -0.4314  0.7566
22018SOL    HW267496   5.630   6.470   6.439 -0.1293 -0.5249  0.5701
22019SOL     OW67497   6.117   2.608   7.711  0.6337 -0.1376 -0.2043
22019SOL    HW167498   6.091   2.615   7.803  1.3517 -1.0495  0.0919
22019SOL    HW267499   6.067   2.675   7.666 -0.6946 -0.5236  0.6542
22020SOL     OW67500   3.166   7.162   9.723  0.0735 -0.4360 -0.1867
22020SOL    HW167501   3.167   7.079   9.771  0.0066 -0.4040 -0.1301
22020SOL    HW267502   3.073   7.180   9.709  0.0914 -0.4307 -0.3016
22021SOL     OW67503   6.683   2.934   7.847  0.1330  0.0029  0.0768
22021SOL    HW167504   6.746   2.960   7.915 -0.2372 -0.7319  0.7146
22021SOL    HW267505   6.597   2.951   7.886 -0.1048 -1.4616  0.2401
22022SOL     OW67506   2.775   5.227  10.739  0.1543 -0.2404 -0.6884
22022SOL    HW167507   2.729   5.243  10.821 -1.6735 -0.8615 -1.5457
22022SOL    HW267508   2.830   5.151  10.757  0.2425  0.0059  0.1252
22023SOL     OW67509   7.167   6.178   7.304  0.3382  0.2761 -0.4599
22023SOL    HW167510   7.106   6.183   7.230 -0.2663  1.0018  0.0737
22023SOL    HW267511   7.196   6.268   7.317 -1.0688  0.5157  1.4123
22024SOL     OW67512   7.545   2.685  11.739 -0.5843 -0.0124 -0.1984
22024SOL    HW167513   7.521   2.592  11.733 -1.5497  0.1679  0.7128
22024SOL    HW267514   7.462   2.732  11.732 -0.1041  0.7990 -0.6210
22025SOL     OW67515   1.237   4.812   8.199 -0.0010  0.1999 -0.0647
22025SOL    HW167516   1.209   4.858   8.278 -0.2458 -1.0881  0.6314
22025SOL    HW267517   1.204   4.723   8.210  2.3279 -0.7842 -0.2842
22026SOL     OW67518   1.442   1.035   8.515 -0.1246 -0.0945 -0.4168
22026SOL    HW167519   1.404   0.968   8.457 -0.0458 -1.1206  0.6733
22026SOL    HW267520   1.385   1.111   8.503 -0.9718 -0.7579 -0.7785
22027SOL     OW67521   7.688   2.418   2.366 -0.2272 -0.7471 -0.5558
22027SOL    HW167522   7.679   2.478   2.292 -1.1356  0.1043  0.2265
22027SOL    HW267523   7.717   2.473   2.439 -1.2419 -1.2209  0.2255
22028SOL     OW67524   0.255   3.311  10.870  0.2226 -0.2225 -0.6343
22028SOL    HW167525   0.213   3.229  10.845  0.9365 -0.4702 -1.0428
22028SOL    HW267526   0.298   3.292  10.954 -2.0806  0.5781  0.8397
22029SOL     OW67527   4.533   5.156   4.005 -0.0178 -0.3473 -0.5403
22029SOL    HW167528   4.574   5.232   3.963 -0.6302  1.0433  1.2415
22029SOL    HW267529   4.580   5.145   4.087 -0.3261 -1.5418 -0.5071
22030SOL     OW67530   1.787   4.283   8.166 -0.2114  0.2710  0.2264
22030SOL    HW167531   1.736   4.362   8.147  0.7834  1.0545  0.6875
22030SOL    HW267532   1.861   4.315   8.217  0.9704 -0.7562 -0.7776
22031SOL     OW67533   7.141   0.616   1.863  0.4718 -0.7086  0.2237
22031SOL    HW167534   7.147   0.622   1.958 -0.4702 -2.7240  0.4710
22031SOL    HW267535   7.049   0.632   1.843  0.8145  0.5738 -0.4759
22032SOL     OW67536   2.029   1.388   0.971 -0.1092  0.3615 -0.0930
22032SOL    HW167537   2.071   1.320   1.024 -0.0054  1.6723  1.5521
22032SOL    HW267538   2.091   1.460   0.970 -0.4592  0.6799 -1.3710
22033SOL     OW67539   7.339   0.402   9.056  0.3226  0.1004 -0.4371
22033SOL    HW167540   7.252   0.437   9.035  0.9945  1.3268 -1.3150
22033SOL    HW267541   7.345   0.410   9.151 -0.2152  0.8250 -0.4498
22034SOL     OW67542   3.730   2.077  10.330 -0.1792 -0.3189  0.3558
22034SOL    HW167543   3.750   2.061  10.422 -0.0641  0.2540  0.4286
22034SOL    HW267544   3.696   2.166  10.327 -0.0737 -0.2923 -0.1731
22035SOL     OW67545   6.957   4.478  11.379  0.1556  0.0645 -0.5323
22035SOL    HW167546   7.003   4.411  11.328 -0.8095 -0.2309 -1.0306
22035SOL    HW267547   6.960   4.556  11.325 -1.7177 -0.5049 -1.5186
22036SOL     OW67548   6.823   1.939  10.849  0.0821  0.0287  0.3474
22036SOL    HW167549   6.800   2.031  10.845  1.2352  0.3683  0.8300
22036SOL    HW267550   6.758   1.900  10.907 -1.3996  0.1755 -1.1495
22037SOL     OW67551   4.375   2.984  10.796 -0.2715  0.1794  0.2502
22037SOL    HW167552   4.386   3.026  10.711 -3.3051  0.6328 -0.0166
22037SOL    HW267553   4.407   2.894  10.782  0.4996  0.6199 -0.9645
22038SOL     OW67554   7.480   7.543   2.571  0.4727  0.4019  0.5416
22038SOL    HW167555   7.561   7.500   2.599  0.1827 -0.1577  0.5214
22038SOL    HW267556   7.465   7.510   2.482 -0.2012 -0.1109  0.8398
22039SOL     OW67557   5.569   5.785   5.046 -0.6477  0.0616  0.5744
22039SOL    HW167558   5.594   5.792   4.953 -0.9821  0.0399  0.4840
22039SOL    HW267559   5.497   5.848   5.056 -0.0217  0.7279  1.0282
22040SOL     OW67560   2.017   1.314   8.624  0.3370 -0.0430 -0.4331
22040SOL    HW167561   2.000   1.326   8.530 -1.4654 -1.2575 -0.3056
22040SOL    HW267562   1.944   1.360   8.667  0.2803 -0.8261  0.3235
22041SOL     OW67563   1.602   1.093   7.004  0.4622  0.4101  0.4843
22041SOL    HW167564   1.668   1.153   6.967 -0.0842  1.0728  0.5590
22041SOL    HW267565   1.635   1.006   6.983  0.2388  0.7540 -1.4656
22042SOL     OW67566   7.496   5.971   5.643 -0.0575  0.3676  0.0670
22042SOL    HW167567   7.583   5.969   5.603 -0.4205  1.5277 -0.8410
22042SOL    HW267568   7.477   6.064   5.656 -1.1169  0.1289  0.3446
22043SOL     OW67569   7.785   3.918   7.810  0.3527  0.1679  0.3163
22043SOL    HW167570   7.710   3.859   7.806  0.4430  0.0887 -0.2982
22043SOL    HW267571   7.754   3.999   7.769  1.0886 -0.4192 -1.5107
22044SOL     OW67572   3.640   0.110   0.891 -0.0139  0.4311  0.0298
22044SOL    HW167573   3.688   0.190   0.870  0.3584  0.1316 -0.2484
22044SOL    HW267574   3.697   0.063   0.953  0.2774 -0.1567 -0.6744
22045SOL     OW67575   6.679   6.136   6.219  0.1076  0.0393  0.4872
22045SOL    HW167576   6.603   6.147   6.161 -0.7892 -0.6085  1.5151
22045SOL    HW267577   6.656   6.062   6.274  1.7212 -0.4827  0.4819
22046SOL     OW67578   0.196   7.707   7.117  0.0567  0.0309  0.7066
22046SOL    HW167579   0.122   7.695   7.057  1.4216  0.4342 -1.1406
22046SOL    HW267580   0.222   7.798   7.105  1.6504 -0.4412  0.3242
22047SOL     OW67581   6.886   7.885   6.643  0.4059 -0.2837  0.0107
22047SOL    HW167582   6.869   7.951   6.575  1.3541 -0.3288 -0.2862
22047SOL    HW267583   6.934   7.933   6.711 -1.0174 -0.1007  0.9454
22048SOL     OW67584   4.586   1.421  10.854  0.1677 -0.1158  0.3200
22048SOL    HW167585   4.662   1.413  10.796  1.2372  0.1648  1.6283
22048SOL    HW267586   4.523   1.474  10.804  0.6163 -0.7518 -0.9732
22049SOL     OW67587   3.223   4.586  10.622 -0.7136  0.3275 -0.3381
22049SOL    HW167588   3.310   4.579  10.659 -0.9116  0.1959  0.1033
22049SOL    HW267589   3.229   4.657  10.558 -0.4452  0.7360  0.1429
22050SOL     OW67590   0.504   6.079   7.280 -0.5570  0.1881  0.3370
22050SOL    HW167591   0.488   6.076   7.185  2.1902  1.0248 -0.2477
22050SOL    HW267592   0.486   6.170   7.304  1.6563  0.7981 -0.0743
22051SOL     OW67593   6.782   6.317   6.457  0.3412 -0.1503  0.3218
22051SOL    HW167594   6.812   6.247   6.399 -1.2597 -1.8278  1.4274
22051SOL    HW267595   6.686   6.313   6.452  0.1938  1.6989  0.7719
22052SOL     OW67596   4.915   1.583   0.528  0.0668 -0.1060  0.0864
22052SOL    HW167597   4.968   1.596   0.450  0.3947 -1.2546  0.1092
22052SOL    HW267598   4.825   1.580   0.495  0.2151 -0.7547 -0.2837
22053SOL     OW67599   7.008   7.944   8.180  0.3078  0.5183  0.4543
22053SOL    HW167600   7.011   7.901   8.265 -0.9469  0.6226  0.5765
22053SOL    HW267601   6.922   7.921   8.145  1.0024  0.0449 -1.0234
22054SOL     OW67602   0.956   2.780  11.513 -0.5492  0.0076 -0.1058
22054SOL    HW167603   0.937   2.761  11.605 -0.0491 -0.7961 -0.1580
22054SOL    HW267604   1.006   2.861  11.516 -1.6670  0.7197  0.2194
22055SOL     OW67605   3.054   3.114  11.735 -0.2033 -0.3079 -0.2657
22055SOL    HW167606   3.119   3.054  11.696 -0.0251  0.0503 -0.5221
22055SOL    HW267607   3.096   3.147  11.814 -0.2296 -0.3825 -0.2207
22056SOL     OW67608   6.918   6.690   5.703  0.0338 -0.4181 -0.3467
22056SOL    HW167609   6.850   6.686   5.769 -0.0309 -0.1379 -0.3922
22056SOL    HW267610   6.872   6.715   5.623  0.0333 -1.2786 -0.6167
22057SOL     OW67611   3.893   0.471   4.399 -0.4876 -0.4007  0.1231
22057SOL    HW167612   3.910   0.379   4.377 -1.7735 -0.6533  0.0744
22057SOL    HW267613   3.867   0.468   4.491  1.3047  0.1811  0.6868
22058SOL     OW67614   2.410   7.164   1.603 -0.7704  0.2607 -0.0385
22058SOL    HW167615   2.435   7.130   1.517 -0.3891 -2.0812  0.9213
22058SOL    HW267616   2.415   7.259   1.594 -0.7292  0.0756 -2.5803
22059SOL     OW67617   7.324   3.544   5.369  0.2564  0.0762 -0.9263
22059SOL    HW167618   7.243   3.570   5.412  1.7878  1.4622  1.3271
22059SOL    HW267619   7.333   3.605   5.296 -1.0898 -0.6217 -1.7098
22060SOL     OW67620   3.855   6.805   6.545 -0.1255 -0.2795 -0.0786
22060SOL    HW167621   3.822   6.758   6.622  0.7766  1.8550  1.7028
22060SOL    HW267622   3.947   6.779   6.539  0.0486  0.2863  0.1365
22061SOL     OW67623   7.528   7.212   1.861  0.2843 -0.1249 -0.0428
22061SOL    HW167624   7.495   7.243   1.945  0.9936 -2.5297  1.2181
22061SOL    HW267625   7.615   7.251   1.853  0.0048  0.5302  0.0785
22062SOL     OW67626   5.122   4.991   1.492 -0.2726 -0.0899  0.2210
22062SOL    HW167627   5.087   4.905   1.469 -0.8772  0.0133  0.7352
22062SOL    HW267628   5.125   4.991   1.587 -0.0662  0.3758  0.2143
22063SOL     OW67629   2.486   1.261   5.788  0.2734  0.4801 -0.6871
22063SOL    HW167630   2.402   1.261   5.835  0.3464 -0.6712 -0.5357
22063SOL    HW267631   2.472   1.201   5.714  0.8765  0.5046 -0.8247
22064SOL     OW67632   3.715   0.322   1.225 -0.1467 -0.1991  0.0314
22064SOL    HW167633   3.653   0.393   1.236  0.1125 -0.0550  0.5689
22064SOL    HW267634   3.672   0.245   1.263 -0.5712 -0.4188 -0.8616
22065SOL     OW67635   2.012   0.198   3.222 -0.2108  0.2937  0.1270
22065SOL    HW167636   1.973   0.232   3.302 -3.0850 -1.5639 -0.3434
22065SOL    HW267637   1.991   0.264   3.155 -1.8964 -0.2889  0.0503
22066SOL     OW67638   1.816   7.856   6.711 -0.4674  0.0094  0.1809
22066SOL    HW167639   1.734   7.812   6.690 -0.6708  0.0325  0.8930
22066SOL    HW267640   1.880   7.818   6.652 -0.8754 -0.4271  0.0158
22067SOL     OW67641   6.842   2.214   1.620  0.2124 -0.0728 -0.1910
22067SOL    HW167642   6.826   2.292   1.672  1.7283 -2.0114  3.6387
22067SOL    HW267643   6.922   2.233   1.571  0.9762  0.5672  1.2550
22068SOL     OW67644   3.864   1.793   7.822 -0.1332  0.6918  0.5261
22068SOL    HW167645   3.785   1.829   7.864 -1.7173 -2.3165  0.3702
22068SOL    HW267646   3.928   1.787   7.893 -1.0947  0.3315  1.3883
22069SOL     OW67647   7.333   2.206   3.810  0.2554 -0.3652 -0.3169
22069SOL    HW167648   7.273   2.195   3.884 -0.8075 -0.0155 -1.1002
22069SOL    HW267649   7.404   2.144   3.828  0.0589 -0.2410  1.0191
22070SOL     OW67650   6.255   7.299   3.689 -0.2704 -0.0199 -0.6522
22070SOL    HW167651   6.251   7.343   3.774  1.7955 -1.5617  0.3171
22070SOL    HW267652   6.239   7.369   3.625  1.1026  1.8013  0.8880
22071SOL     OW67653   1.447   7.407  11.642 -0.2198  0.5541  0.0898
22071SOL    HW167654   1.524   7.417  11.699  0.0185 -1.7736  0.2691
22071SOL    HW267655   1.472   7.452  11.561  1.5016 -0.4213  0.0277
22072SOL     OW67656   3.440   5.646   1.805  0.0577  0.1586 -0.3314
22072SOL    HW167657   3.519   5.667   1.756  0.0391  0.0145 -0.4220
22072SOL    HW267658   3.469   5.639   1.896  0.0616  0.5972 -0.2941
22073SOL     OW67659   4.912   5.635   6.737  0.3514 -0.4592  0.0750
22073SOL    HW167660   4.898   5.727   6.757 -0.4188 -0.5416 -0.0668
22073SOL    HW267661   4.918   5.592   6.822  1.1846 -0.2137  0.1452
22074SOL     OW67662   1.791   1.898   5.935  0.0138  0.8421  0.4897
22074SOL    HW167663   1.708   1.944   5.918  0.2723  2.1798  2.4939
22074SOL    HW267664   1.841   1.908   5.854 -1.9930 -0.6097 -1.0355
22075SOL     OW67665   3.254   2.971   5.676  0.3983 -0.2244  0.0341
22075SOL    HW167666   3.337   2.929   5.653 -0.8471 -1.9876 -1.6266
22075SOL    HW267667   3.213   2.910   5.737 -0.5032 -0.3953 -0.7171
22076SOL     OW67668   7.278   1.853   8.257 -0.1279 -0.9034 -0.0237
22076SOL    HW167669   7.333   1.864   8.334  2.0212 -1.0187 -1.4394
22076SOL    HW267670   7.281   1.938   8.213 -1.4493 -0.7919  0.0738
22077SOL     OW67671   0.838   7.516   7.445  0.0127 -0.1994  0.4346
22077SOL    HW167672   0.874   7.434   7.480 -4.1396 -2.5121 -0.0469
22077SOL    HW267673   0.817   7.568   7.523  1.8686  0.0870  0.7794
22078SOL     OW67674   4.781   6.762   6.602  0.7777  0.3936 -0.1056
22078SOL    HW167675   4.855   6.792   6.655  0.6544 -0.7473  0.7191
22078SOL    HW267676   4.810   6.680   6.564 -0.4523 -0.6628  1.1353
22079SOL     OW67677   7.866   0.388   7.313 -0.4249 -0.2652  0.5737
22079SOL    HW167678   7.942   0.433   7.278  0.2634 -2.8655 -1.6228
22079SOL    HW267679   7.873   0.399   7.408  1.0911  1.8669  0.2922
22080SOL     OW67680   7.020   2.770   8.271 -0.0537  0.0187 -0.4935
22080SOL    HW167681   7.045   2.705   8.206 -1.3865 -1.3346  0.2774
22080SOL    HW267682   6.954   2.726   8.325  0.7023  1.2110  1.5221
22081SOL     OW67683   6.220   4.133   7.188 -0.2141  0.1882  0.4549
22081SOL    HW167684   6.140   4.161   7.233  0.2747  0.5424  1.1322
22081SOL    HW267685   6.266   4.079   7.252  0.4025  0.5390  0.3217
22082SOL     OW67686   6.694   1.778   8.077  0.4429 -0.6707 -0.2246
22082SOL    HW167687   6.671   1.869   8.060 -0.9966 -1.1728 -1.1544
22082SOL    HW267688   6.715   1.742   7.990  1.7236 -1.0436  0.2220
22083SOL     OW67689   2.359   5.553   1.625 -0.4079 -0.1780  0.1528
22083SOL    HW167690   2.415   5.604   1.683 -1.2277  2.1890 -0.9883
22083SOL    HW267691   2.276   5.545   1.674 -0.0033 -1.2184  0.6886
22084SOL     OW67692   3.605   0.589  10.583  0.3301  0.3397 -0.5391
22084SOL    HW167693   3.634   0.498  10.574  1.1962  0.5752 -0.2407
22084SOL    HW267694   3.676   0.641  10.545  0.5947  0.9538  0.7170
22085SOL     OW67695   1.618   7.404   8.264 -0.4024 -0.3452  0.5473
22085SOL    HW167696   1.645   7.479   8.211 -1.0452 -0.4155  0.1126
22085SOL    HW267697   1.699   7.354   8.277 -0.0698  0.1432  0.3941
22086SOL     OW67698   4.720   5.678   6.196  0.0594 -0.4873 -0.0072
22086SOL    HW167699   4.649   5.716   6.144 -0.2906 -2.4182 -1.0287
22086SOL    HW267700   4.799   5.696   6.146  0.0578 -0.0175  0.1548
22087SOL     OW67701   3.302   1.436   6.849  0.5816  0.2340  0.2372
22087SOL    HW167702   3.235   1.373   6.822  2.4179 -1.6082 -0.2774
22087SOL    HW267703   3.340   1.399   6.928  1.4500  0.8642  0.1401
22088SOL     OW67704   1.297   2.011  11.119 -0.2241 -0.5656 -0.2409
22088SOL    HW167705   1.304   1.954  11.196  0.4770  0.6894  0.6731
22088SOL    HW267706   1.232   2.076  11.145  0.2690  0.0629 -0.5766
22089SOL     OW67707   0.501   4.716  12.140 -0.2438 -0.1515 -0.2119
22089SOL    HW167708   0.505   4.749  12.051  0.7912 -0.2486 -0.2174
22089SOL    HW267709   0.501   4.621  12.131 -2.6809 -0.2205 -0.1742
22090SOL     OW67710   4.933   3.039  11.757 -0.3103 -0.3387  0.1145
22090SOL    HW167711   4.841   3.024  11.778 -0.2856 -0.1907  0.3277
22090SOL    HW267712   4.977   2.958  11.782 -0.5378 -0.8220 -0.9795
22091SOL     OW67713   0.008   3.038   6.051  0.0190 -0.1732 -0.0689
22091SOL    HW167714   0.034   3.128   6.070 -0.7641 -0.1869  1.1806
22091SOL    HW267715  -0.074   3.026   6.099  1.5979 -2.4664  2.3883
22092SOL     OW67716   7.404   3.848   6.610 -0.1881  0.0021 -0.5660
22092SOL    HW167717   7.480   3.831   6.665 -0.3435  2.7094  0.6520
22092SOL    HW267718   7.389   3.766   6.563  2.3794 -1.1536  0.4636
22093SOL     OW67719   2.948   4.208   8.230 -0.1384 -0.0916 -0.1369
22093SOL    HW167720   2.891   4.159   8.170  0.6398  1.0577 -1.8761
22093SOL    HW267721   3.019   4.148   8.250 -1.4549 -1.2421  1.3964
22094SOL     OW67722   5.993   6.542   6.386  0.1262  0.4338 -0.7860
22094SOL    HW167723   5.990   6.595   6.306 -0.9951 -0.7377 -1.5582
22094SOL    HW267724   5.926   6.475   6.373  1.4312 -1.1259  0.1969
22095SOL     OW67725   7.792   6.289   9.617 -0.6390  0.0253 -0.3538
22095SOL    HW167726   7.807   6.196   9.598  0.1720 -0.4451  2.2236
22095SOL    HW267727   7.720   6.313   9.559  0.5271 -1.6045 -2.6372
22096SOL     OW67728   7.413   1.111   9.868 -0.0703  0.0613  0.0847
22096SOL    HW167729   7.391   1.190   9.819  1.1480 -0.4386 -1.3407
22096SOL    HW267730   7.354   1.044   9.833 -0.3527  0.0745  0.5226
22097SOL     OW67731   7.170   7.877   9.633  0.2850  0.0674 -0.2213
22097SOL    HW167732   7.131   7.960   9.607 -0.6293 -0.5513 -0.8761
22097SOL    HW267733   7.186   7.886   9.727 -0.4752  0.7228 -0.1478
22098SOL     OW67734   4.388   0.389   8.665  0.2454  0.2473  0.0934
22098SOL    HW167735   4.430   0.451   8.605  1.3714 -0.1572  0.4391
22098SOL    HW267736   4.348   0.444   8.732 -0.7750  0.6915 -0.8404
22099SOL     OW67737   1.926   6.181   9.145 -0.4113  0.4361 -0.0496
22099SOL    HW167738   1.968   6.176   9.230 -2.7811  0.3694  1.2038
22099SOL    HW267739   1.979   6.244   9.096  0.4200  1.2814  1.8350
22100SOL     OW67740   6.471   4.328   6.158 -0.1108  0.0023  0.5137
22100SOL    HW167741   6.511   4.410   6.187  1.4181 -0.6630  0.4272
22100SOL    HW267742   6.385   4.327   6.199 -0.3629  1.8647  0.0994
22101SOL     OW67743   0.476   6.443  10.015 -0.3909 -0.6187 -0.8964
22101SOL    HW167744   0.503   6.441   9.923  0.2677 -0.9071 -0.7047
22101SOL    HW267745   0.494   6.355  10.047  0.1494 -0.2882 -0.2835
22102SOL     OW67746   0.194   4.837   6.699 -0.3295  0.7279 -0.1981
22102SOL    HW167747   0.156   4.763   6.653 -1.6221 -0.2496  2.2845
22102SOL    HW267748   0.129   4.907   6.692 -0.1034  0.8994 -0.6310
22103SOL     OW67749   6.331   3.372   8.858 -0.2295  0.0400 -0.0417
22103SOL    HW167750   6.314   3.347   8.767 -1.4433 -0.2266  0.2492
22103SOL    HW267751   6.267   3.323   8.909  0.3358  0.3075  0.9586
22104SOL     OW67752   5.974   6.677   2.830 -0.2112 -0.5969 -0.4069
22104SOL    HW167753   5.928   6.710   2.753 -0.0985 -0.6518 -0.4969
22104SOL    HW267754   5.903   6.655   2.891 -0.2813  0.0564 -0.2420
22105SOL     OW67755   3.962   3.000   1.912 -0.0486 -0.0090  0.3214
22105SOL    HW167756   4.037   2.944   1.896  0.4831  0.2407  1.7813
22105SOL    HW267757   3.929   2.973   1.997  0.5970  2.2479  1.3606
22106SOL     OW67758   2.899   0.886   7.669  0.0174  0.3014  0.6216
22106SOL    HW167759   2.941   0.822   7.612  0.8342  1.0273  0.3787
22106SOL    HW267760   2.806   0.865   7.664  0.1269 -0.0110 -0.5396
22107SOL     OW67761   2.235   7.343   9.117 -0.2460  0.5562  0.1740
22107SOL    HW167762   2.200   7.265   9.160  0.3829 -0.1221 -0.5130
22107SOL    HW267763   2.330   7.335   9.126 -0.1980  2.2798  1.8583
22108SOL     OW67764   1.670   7.946   3.735 -0.0619 -0.3519  0.0140
22108SOL    HW167765   1.599   7.889   3.765  0.1260 -0.6085 -0.0242
22108SOL    HW267766   1.738   7.886   3.706  1.1632 -0.1431  2.2965
22109SOL     OW67767   7.661   4.224   8.499 -0.8172 -0.3756 -0.3832
22109SOL    HW167768   7.605   4.149   8.517  0.3606 -0.9324  1.2218
22109SOL    HW267769   7.624   4.295   8.552  0.2223 -0.8921  1.1255
22110SOL     OW67770   4.070   5.493   0.044 -0.4088 -0.4741 -0.5806
22110SOL    HW167771   4.149   5.532   0.006 -0.1269 -0.2950  0.1614
22110SOL    HW267772   4.024   5.454  -0.030 -0.2839  0.5609 -1.2203
22111SOL     OW67773   7.169   3.451   9.226  0.1820 -0.0913  0.4244
22111SOL    HW167774   7.176   3.422   9.135  0.1279  0.0922  0.3602
22111SOL    HW267775   7.101   3.519   9.224  0.3524  0.0866  0.5572
22112SOL     OW67776   2.568   3.914   3.074  0.5636  0.2490 -0.9697
22112SOL    HW167777   2.620   3.853   3.126 -0.1019  0.9677  0.6028
22112SOL    HW267778   2.503   3.860   3.031 -1.1329 -0.0521  1.7692
22113SOL     OW67779   1.947   3.171   8.392 -0.5859  0.2235 -0.3426
22113SOL    HW167780   1.886   3.143   8.460 -0.3995 -0.5027 -0.4670
22113SOL    HW267781   1.946   3.267   8.397  0.2599  0.1618  1.3997
22114SOL     OW67782   5.935   4.738   0.563  0.0057 -0.1626  0.7310
22114SOL    HW167783   5.874   4.762   0.493  0.4397 -2.7833 -0.6444
22114SOL    HW267784   5.913   4.648   0.585  0.1394  0.4367  3.8133
22115SOL     OW67785   3.739   2.413   0.441 -0.0736  0.1722 -0.5348
22115SOL    HW167786   3.651   2.403   0.407  0.3405 -0.5959 -1.4172
22115SOL    HW267787   3.773   2.491   0.396 -0.4917  0.8397  0.2653
22116SOL     OW67788   6.539   4.673   1.021 -0.3810  0.1284  0.4767
22116SOL    HW167789   6.506   4.586   0.998 -0.8368  0.1181  1.1361
22116SOL    HW267790   6.520   4.682   1.115  0.3820  0.6225  0.5959
22117SOL     OW67791   5.046   2.284   5.587  0.1167 -0.5362  0.0251
22117SOL    HW167792   5.064   2.303   5.495 -1.8220  0.2557 -0.2497
22117SOL    HW267793   5.111   2.335   5.635 -0.4234  1.0959 -0.8910
22118SOL     OW67794   6.741   6.968   7.824  0.4941 -0.3686  0.3001
22118SOL    HW167795   6.829   6.999   7.843  1.0929 -1.2270 -0.9609
22118SOL    HW267796   6.753   6.890   7.769 -1.0302 -0.9265  0.6910
22119SOL     OW67797   6.195   4.228   5.625 -0.1850 -0.3379  0.2773
22119SOL    HW167798   6.170   4.148   5.670  0.1650 -0.2434  0.6492
22119SOL    HW267799   6.174   4.298   5.688  2.2405 -0.3349  1.1850
22120SOL     OW67800   4.401   0.395   3.297  0.3611  0.0788  0.7325
22120SOL    HW167801   4.330   0.349   3.253 -0.7052  2.4242 -0.1607
22120SOL    HW267802   4.472   0.331   3.301 -1.4492 -2.0435  0.8198
22121SOL     OW67803   2.089   7.438   2.596 -0.0715  0.7885 -0.0689
22121SOL    HW167804   2.101   7.453   2.503  0.5100  1.0240  0.0380
22121SOL    HW267805   2.172   7.465   2.636  0.3197 -0.8458  0.3458
22122SOL     OW67806   1.181   2.292   1.015 -0.1016  0.3698  0.0625
22122SOL    HW167807   1.258   2.285   1.071  1.2004  1.1014 -1.5559
22122SOL    HW267808   1.164   2.203   0.986 -0.0466  0.1706  0.6168
22123SOL     OW67809   4.914   5.466   1.237 -0.1711 -0.0568  0.4151
22123SOL    HW167810   4.845   5.449   1.302 -0.4322  0.6988  0.3420
22123SOL    HW267811   4.976   5.394   1.249 -1.3138 -1.1352  0.0189
22124SOL     OW67812   6.214   5.010   0.196 -0.2722  0.2793 -0.0153
22124SOL    HW167813   6.167   4.952   0.256 -1.2999 -0.3033 -1.3130
22124SOL    HW267814   6.201   5.098   0.232 -0.5920 -0.0847  0.7830
22125SOL     OW67815   0.675   2.218   9.907  0.1426 -0.8939 -0.1767
22125SOL    HW167816   0.602   2.274   9.934  1.2591  0.0361  1.0653
22125SOL    HW267817   0.633   2.140   9.871 -1.4542 -0.0632 -0.2055
22126SOL     OW67818   6.418   0.194   3.274 -0.3865  0.1126 -0.4175
22126SOL    HW167819   6.486   0.209   3.208 -0.0810 -0.9708 -0.3649
22126SOL    HW267820   6.337   0.183   3.224 -0.6469  1.8853 -0.4585
22127SOL     OW67821   5.674   3.268   9.736 -0.3149 -0.1571 -0.2398
22127SOL    HW167822   5.767   3.287   9.727 -0.0269 -0.6481  1.4421
22127SOL    HW267823   5.643   3.259   9.646  1.3007 -0.2378 -0.8228
22128SOL     OW67824   1.962   0.243   9.425  0.2679 -0.0163  0.3687
22128SOL    HW167825   2.030   0.230   9.359 -0.6030 -1.6875 -0.2574
22128SOL    HW267826   1.997   0.200   9.503  0.6810  0.7168  0.6024
22129SOL     OW67827   0.606   4.624   1.792 -0.1882 -0.1065  0.3732
22129SOL    HW167828   0.687   4.672   1.805 -0.0394 -0.4851  0.8847
22129SOL    HW267829   0.567   4.618   1.879 -1.3805  1.1246 -0.0473
22130SOL     OW67830   6.986   7.206   8.712 -0.1182 -0.2817  0.0205
22130SOL    HW167831   7.044   7.278   8.737 -0.9735  1.2852 -2.1820
22130SOL    HW267832   7.045   7.132   8.696  0.9921  0.4919  0.4373
22131SOL     OW67833   5.285   6.416   6.843 -0.0458 -0.2181  0.7050
22131SOL    HW167834   5.366   6.453   6.877  0.9220 -0.6718 -1.0157
22131SOL    HW267835   5.234   6.491   6.813 -0.2402  0.0594  1.7090
22132SOL     OW67836   2.017   4.790   7.110  0.4470 -0.4018 -0.0194
22132SOL    HW167837   1.922   4.805   7.109  0.3398 -1.0781 -0.1761
22132SOL    HW267838   2.027   4.701   7.143  0.9539 -0.9089 -1.4730
22133SOL     OW67839   4.939   1.266  10.997 -0.3593  0.3981 -0.4501
22133SOL    HW167840   4.850   1.233  11.011  0.3428 -1.9917 -1.1363
22133SOL    HW267841   4.940   1.293  10.905  0.5649 -3.2783 -1.6947
22134SOL     OW67842   5.695   5.983   8.977  0.3201  0.2659  0.0247
22134SOL    HW167843   5.627   5.961   8.913 -0.4016  0.8611  0.5817
22134SOL    HW267844   5.760   5.913   8.967  0.0175  0.1165 -1.0615
22135SOL     OW67845   4.590   2.001   1.159 -0.5233  0.3196 -0.6961
22135SOL    HW167846   4.561   1.978   1.247  0.0583  1.1467 -0.2772
22135SOL    HW267847   4.509   2.003   1.107 -0.8276 -0.5263 -0.2704
22136SOL     OW67848   7.030   4.950   6.621  0.0775  0.1815 -0.3097
22136SOL    HW167849   7.099   5.015   6.637 -0.9239  1.1009  0.3383
22136SOL    HW267850   7.064   4.897   6.548  0.0711  2.6699 -2.2325
22137SOL     OW67851   6.681   1.016   1.816 -0.4241  0.3720 -0.6185
22137SOL    HW167852   6.675   1.111   1.825  1.1461  0.4196  0.2903
22137SOL    HW267853   6.643   0.982   1.898  2.5296  0.4013  0.8957
22138SOL     OW67854   5.006   1.574   8.122 -1.2007 -0.2766  0.0579
22138SOL    HW167855   5.046   1.491   8.151 -1.1292 -0.8742 -1.6314
22138SOL    HW267856   5.067   1.641   8.153 -0.2069 -0.9994 -0.2516
22139SOL     OW67857   2.620   3.593   5.013  0.1877 -0.3316 -0.1050
22139SOL    HW167858   2.677   3.544   4.955  0.6649  0.0195  0.0656
22139SOL    HW267859   2.531   3.568   4.986  0.4138 -0.6989 -0.5189
22140SOL     OW67860   6.138   0.742  11.396  0.2443 -0.4153 -0.0092
22140SOL    HW167861   6.214   0.708  11.444  0.9567  1.7608  0.4922
22140SOL    HW267862   6.064   0.695  11.432  1.2208 -1.8102  0.2660
22141SOL     OW67863   0.023   4.382   5.354 -0.3228 -0.7453  0.4169
22141SOL    HW167864  -0.026   4.458   5.322 -0.5314 -0.9515  0.2474
22141SOL    HW267865   0.105   4.419   5.387 -0.4897 -0.4297  0.4769
22142SOL     OW67866   3.734   4.535   9.149  0.4773  0.2200 -0.1369
22142SOL    HW167867   3.678   4.604   9.115  2.1758  2.1100  0.6542
22142SOL    HW267868   3.674   4.474   9.193 -0.9968  1.8978  0.2891
22143SOL     OW67869   1.045   6.484  11.714 -0.5587 -0.5708  0.1513
22143SOL    HW167870   1.126   6.445  11.747  1.6298  1.7219 -2.0212
22143SOL    HW267871   1.022   6.551  11.778  0.2675 -0.1203 -0.0042
22144SOL     OW67872   7.561   2.917  12.083  0.0006  0.1012 -0.4446
22144SOL    HW167873   7.471   2.928  12.055 -0.5064 -0.5514  0.8457
22144SOL    HW267874   7.555   2.876  12.169  1.5805 -2.5837 -1.4957
22145SOL     OW67875   1.919   3.087  12.395  0.3756 -0.4512  0.0171
22145SOL    HW167876   1.833   3.123  12.421  0.5243  0.1256 -0.2676
22145SOL    HW267877   1.898   3.002  12.356 -0.0428 -0.4360  0.1950
22146SOL     OW67878   2.471   4.956   4.388 -0.0762 -0.3929  0.2287
22146SOL    HW167879   2.487   4.863   4.374 -0.8250 -0.2346 -2.0571
22146SOL    HW267880   2.378   4.968   4.368 -0.1083  0.7823  0.9814
22147SOL     OW67881   4.738   5.452   1.427  0.3920 -0.7860  0.2642
22147SOL    HW167882   4.709   5.362   1.411 -2.7034 -0.0874  1.2873
22147SOL    HW267883   4.741   5.460   1.523 -0.7568  0.5345  0.2258
22148SOL     OW67884   4.255   7.873  11.745 -0.1931 -0.3448 -0.0068
22148SOL    HW167885   4.334   7.818  11.742  0.8184  1.0934 -0.9504
22148SOL    HW267886   4.286   7.958  11.777 -1.7865 -0.3554  1.7564
22149SOL     OW67887   0.924   1.178   8.066 -0.0605  0.2559  0.2961
22149SOL    HW167888   0.896   1.269   8.075  0.6514  0.2835  3.5197
22149SOL    HW267889   0.863   1.128   8.120  1.5954 -0.6370  1.4486
22150SOL     OW67890   2.831   6.549   6.256  0.0607  0.0199 -0.2149
22150SOL    HW167891   2.781   6.501   6.189 -1.2114  0.1617  0.6077
22150SOL    HW267892   2.801   6.640   6.247 -0.0972  0.0459  0.5146
22151SOL     OW67893   6.951   5.509   1.472  0.1544 -0.0788 -0.0889
22151SOL    HW167894   6.894   5.553   1.535 -0.7873  0.9060 -1.5738
22151SOL    HW267895   6.911   5.526   1.387  1.5870 -1.0635 -1.0034
22152SOL     OW67896   2.599   3.335   4.693 -0.2207  0.2198 -0.0658
22152SOL    HW167897   2.679   3.381   4.717  0.2370 -0.5234 -0.1395
22152SOL    HW267898   2.629   3.249   4.664 -1.0888 -0.2429  0.3904
22153SOL     OW67899   3.329   5.493   2.769 -0.2717 -0.3645  0.1198
22153SOL    HW167900   3.307   5.514   2.860 -1.4993  1.5924 -0.5849
22153SOL    HW267901   3.248   5.460   2.731 -0.0858 -0.0631 -0.5585
22154SOL     OW67902   2.631   7.020   4.594 -0.8463  0.0169 -0.0669
22154SOL    HW167903   2.725   7.035   4.606 -1.0611  0.6423  0.9170
22154SOL    HW267904   2.626   6.942   4.538  0.2512  0.0725 -0.2642
22155SOL     OW67905   1.399   0.898   3.514 -0.4196 -0.3892 -0.1513
22155SOL    HW167906   1.353   0.973   3.476 -0.8880  0.1078  1.3142
22155SOL    HW267907   1.438   0.853   3.439 -0.7639  0.8899 -1.1338
22156SOL     OW67908   1.187   6.569   9.116  0.3198  0.3313  0.4463
22156SOL    HW167909   1.235   6.639   9.159  0.6827 -0.2465  1.0005
22156SOL    HW267910   1.220   6.489   9.156  0.5951 -0.2245 -0.8362
22157SOL     OW67911   5.447   3.344   7.603  0.1922  0.5526 -0.3047
22157SOL    HW167912   5.371   3.401   7.608  0.3364  0.8063 -0.9336
22157SOL    HW267913   5.412   3.259   7.576  0.1146  0.6349 -0.4628
22158SOL     OW67914   4.267   7.361  11.892 -0.2092  0.2521 -0.1313
22158SOL    HW167915   4.290   7.418  11.819 -2.2369 -0.6616 -1.5858
22158SOL    HW267916   4.219   7.418  11.953 -0.0850  0.6274 -0.3825
22159SOL     OW67917   7.510   3.983   0.791 -0.3774  0.2135  0.5444
22159SOL    HW167918   7.452   4.059   0.787  1.0136  1.6772  3.8136
22159SOL    HW267919   7.472   3.927   0.859  0.0509 -0.6952  0.0523
22160SOL     OW67920   7.165   5.239   5.196 -0.2538  0.2552  0.1671
22160SOL    HW167921   7.178   5.156   5.242 -1.2269  0.5170  0.9536
22160SOL    HW267922   7.074   5.237   5.168 -0.7561  1.6929  1.5618
22161SOL     OW67923   1.819   3.098  10.743 -0.2238  0.1642 -0.7181
22161SOL    HW167924   1.786   3.054  10.821 -0.8845  0.2682 -0.9308
22161SOL    HW267925   1.744   3.102  10.684  0.0022  0.9595 -0.9712
22162SOL     OW67926   6.718   4.247   2.629 -0.1585 -0.1846  0.1932
22162SOL    HW167927   6.776   4.299   2.684 -0.1155 -1.2979  1.2598
22162SOL    HW267928   6.630   4.277   2.652 -0.1251 -0.4165  0.6254
22163SOL     OW67929   6.333   7.231  10.253  0.1183  0.3541  0.3049
22163SOL    HW167930   6.356   7.144  10.286  1.4424  0.7714  0.5470
22163SOL    HW267931   6.302   7.278  10.330 -1.2468 -0.0816  0.0531
22164SOL     OW67932   2.632   7.739   3.034  0.2269  0.7663 -0.2656
22164SOL    HW167933   2.678   7.690   3.103 -1.3739  0.6088  0.7334
22164SOL    HW267934   2.596   7.671   2.977 -0.1781  0.8426 -0.0990
22165SOL     OW67935   3.887   6.123   0.804 -0.6721  0.3862 -0.2933
22165SOL    HW167936   3.851   6.195   0.857  2.2313  1.4182  0.4909
22165SOL    HW267937   3.943   6.167   0.740  1.8566 -1.0871  0.7360
22166SOL     OW67938   0.228   7.296   6.399  0.0538 -0.1690  0.1136
22166SOL    HW167939   0.257   7.328   6.313 -0.5470  0.1719  0.0381
22166SOL    HW267940   0.258   7.362   6.461 -0.9220  0.3986 -0.0099
22167SOL     OW67941   1.051   6.051   8.752  0.6486  0.2632  0.1135
22167SOL    HW167942   1.064   5.983   8.685 -1.1042  0.4806 -0.5050
22167SOL    HW267943   1.085   6.011   8.832  0.5004 -1.0095 -0.4194
22168SOL     OW67944   7.836   2.399   6.925  0.6917 -0.2444 -0.1201
22168SOL    HW167945   7.825   2.438   7.012  1.6744  1.5884 -0.7505
22168SOL    HW267946   7.763   2.339   6.916 -0.0062  0.2901  1.5764
22169SOL     OW67947   4.574   0.560  10.531 -0.0531 -0.6091  0.3099
22169SOL    HW167948   4.578   0.544  10.437  0.6070 -0.5227  0.3165
22169SOL    HW267949   4.485   0.591  10.547  0.2763  0.8911 -0.5335
22170SOL     OW67950   4.456   6.658   2.861 -0.3217  0.2638 -0.5756
22170SOL    HW167951   4.486   6.570   2.838  0.8799  0.4186  0.2832
22170SOL    HW267952   4.361   6.652   2.861 -0.2556 -1.1725 -0.0350
22171SOL     OW67953   3.946   5.508   2.479 -0.6383  0.0636 -0.3719
22171SOL    HW167954   3.850   5.509   2.479 -0.6732  1.1869 -2.3783
22171SOL    HW267955   3.969   5.434   2.423 -0.3058 -0.2798  0.2034
22172SOL     OW67956   5.189   0.153   0.527  0.1090  0.5106  0.1552
22172SOL    HW167957   5.094   0.164   0.519 -0.1455 -1.6347 -0.3058
22172SOL    HW267958   5.217   0.120   0.442  0.6657 -2.2593  1.3018
22173SOL     OW67959   5.564   3.217   0.326  0.0829  0.3696  0.5299
22173SOL    HW167960   5.589   3.125   0.328 -0.7416  0.1336  0.2508
22173SOL    HW267961   5.623   3.256   0.261 -0.1176 -0.1318  0.0397
22174SOL     OW67962   6.290   0.974   8.077 -0.5354  0.0666  0.5302
22174SOL    HW167963   6.200   1.000   8.099  0.0322  2.6049  0.1385
22174SOL    HW267964   6.289   0.964   7.982 -0.1735  1.1871  0.3981
22175SOL     OW67965   4.329   6.918   9.802 -0.8668 -0.2034  0.3163
22175SOL    HW167966   4.379   6.869   9.737 -2.0416 -0.3699 -0.4994
22175SOL    HW267967   4.392   6.938   9.871  0.1036 -1.1409 -0.2672
22176SOL     OW67968   6.213   2.735   2.034  0.2652 -0.0087 -0.2501
22176SOL    HW167969   6.267   2.814   2.036  0.8375 -0.4059  0.1919
22176SOL    HW267970   6.201   2.712   2.126 -1.2287  0.4482 -0.3003
22177SOL     OW67971   0.687   7.494  10.975  0.2273  0.4472  0.2987
22177SOL    HW167972   0.672   7.492  10.880  1.1613  1.5075  0.1081
22177SOL    HW267973   0.600   7.480  11.013 -0.4519  1.6563 -0.7280
22178SOL     OW67974   4.676   5.756   4.782  0.6734 -0.0943 -0.7643
22178SOL    HW167975   4.710   5.749   4.693 -1.1641  1.3545 -1.6598
22178SOL    HW267976   4.586   5.786   4.771 -0.7754 -3.0779  1.4646
22179SOL     OW67977   7.388   4.532   7.905  0.2368  0.2069 -0.6596
22179SOL    HW167978   7.396   4.567   7.993 -1.2213 -1.6948  0.3053
22179SOL    HW267979   7.476   4.504   7.881  0.9536  2.1613 -0.5027
22180SOL     OW67980   0.113   5.528   6.204 -0.2642 -0.7129 -0.7022
22180SOL    HW167981   0.065   5.569   6.131  0.0938 -2.5074 -2.0005
22180SOL    HW267982   0.201   5.511   6.168  0.3028 -0.5548  0.5535
22181SOL     OW67983   4.150   0.227   2.817  0.0067 -0.1653 -0.1515
22181SOL    HW167984   4.134   0.149   2.764  0.3924 -0.5024  0.2156
22181SOL    HW267985   4.072   0.235   2.872  1.3400 -2.3056  2.2550
22182SOL     OW67986   2.837   6.816  10.158 -0.1708  0.0546  0.4946
22182SOL    HW167987   2.765   6.778  10.208 -0.6392  0.5401  0.2020
22182SOL    HW267988   2.794   6.866  10.089  0.3866  2.0686  1.5311
22183SOL     OW67989   1.380   4.259  10.030  0.3759 -0.1084  0.3211
22183SOL    HW167990   1.387   4.194  10.100 -0.3979 -0.6437 -0.0801
22183SOL    HW267991   1.299   4.307  10.050  1.1768  1.0601  0.8706
22184SOL     OW67992   6.130   0.343   6.831  0.2795 -0.1732  0.4689
22184SOL    HW167993   6.149   0.249   6.829  3.5084  0.3146 -2.4384
22184SOL    HW267994   6.060   0.355   6.767  2.2852 -0.3621 -1.8903
22185SOL     OW67995   7.643   2.602  10.740 -0.1052  0.0655  0.4802
22185SOL    HW167996   7.551   2.618  10.720  0.2730  0.6794 -0.9765
22185SOL    HW267997   7.685   2.687  10.726  1.0288 -0.7120 -1.3043
22186SOL     OW67998   1.072   5.546   9.681  0.2173 -0.2220  0.5519
22186SOL    HW167999   1.097   5.632   9.649  0.9064 -0.1968  1.1258
22186SOL    HW268000   1.044   5.562   9.772 -0.2569 -0.5100  0.4596
22187SOL     OW68001   2.861   5.441   5.757 -0.1251 -0.1050  0.6285
22187SOL    HW168002   2.854   5.490   5.675  1.1364 -0.9067  0.0019
22187SOL    HW268003   2.848   5.350   5.730  2.0070 -0.5778  0.9793
22188SOL     OW68004   4.904   6.253   7.563 -0.4941 -0.0933 -0.2988
22188SOL    HW168005   4.855   6.223   7.639 -0.9023 -1.1456 -0.9479
22188SOL    HW268006   4.990   6.211   7.570  0.0002  0.9730  0.3250
22189SOL     OW68007   7.032   3.123   9.988 -0.0794  0.2211  0.2313
22189SOL    HW168008   6.999   3.038  10.019  0.9152 -0.6348 -0.9809
22189SOL    HW268009   7.117   3.103   9.949 -0.1586  1.6610 -0.7484
22190SOL     OW68010   7.919   3.487  11.478 -0.1188 -0.5568  0.4463
22190SOL    HW168011   7.826   3.467  11.493 -0.0015 -0.2417  1.6345
22190SOL    HW268012   7.961   3.402  11.470 -0.2195 -0.7373  1.7524
22191SOL     OW68013   7.776   2.414   2.809  0.4773  0.1091  0.0386
22191SOL    HW168014   7.790   2.326   2.774  1.0239  0.6924 -1.2807
22191SOL    HW268015   7.694   2.442   2.769 -0.3738 -0.2478  1.4517
22192SOL     OW68016   2.222   7.604   6.413 -0.2041 -0.6572 -0.0435
22192SOL    HW168017   2.227   7.620   6.318 -1.5391  0.5260  0.0542
22192SOL    HW268018   2.268   7.521   6.425  0.3173 -0.6477 -1.6779
22193SOL     OW68019   2.913   6.297   6.340 -0.2064  0.7806 -0.5433
22193SOL    HW168020   2.904   6.384   6.300  0.2162  1.1024  0.0466
22193SOL    HW268021   3.007   6.290   6.361 -0.5233  0.9272  1.0501
22194SOL     OW68022   2.332   3.327   0.076 -0.8023  0.4554  0.4633
22194SOL    HW168023   2.310   3.415   0.106 -0.8425  0.3977  0.6048
22194SOL    HW268024   2.272   3.310   0.003  0.3350  1.2052 -0.6901
22195SOL     OW68025   0.528   2.449   7.001  0.1444  0.6299  0.1292
22195SOL    HW168026   0.600   2.454   6.938 -0.8094  0.3115 -0.9993
22195SOL    HW268027   0.449   2.450   6.948 -0.7083 -3.3821  0.9559
22196SOL     OW68028   2.949   7.011   7.471 -0.2360  0.9625  0.1827
22196SOL    HW168029   2.906   7.094   7.494 -1.0637  0.5159  0.2788
22196SOL    HW268030   2.878   6.946   7.473  0.3165  0.3348 -0.3606
22197SOL     OW68031   6.681   1.682   0.668  0.5377  0.0485  0.3500
22197SOL    HW168032   6.615   1.645   0.610  0.5958  1.5523 -0.7466
22197SOL    HW268033   6.730   1.606   0.701 -0.4282 -0.9375 -0.4173
22198SOL     OW68034   5.915   3.142   9.983  0.6802 -0.2029  0.4145
22198SOL    HW168035   5.912   3.095  10.066 -2.0761  1.8522  1.6425
22198SOL    HW268036   6.000   3.184   9.981  1.1436 -1.0227  1.7273
22199SOL     OW68037   0.152   4.095   0.410  0.1021  0.6117 -0.0395
22199SOL    HW168038   0.162   4.008   0.370  3.4282  1.0719 -0.5581
22199SOL    HW268039   0.158   4.156   0.335 -0.7846  1.3178  0.4534
22200SOL     OW68040   4.392   4.237  11.738 -1.0258  0.2221  0.0156
22200SOL    HW168041   4.352   4.183  11.670 -1.0797 -0.9619  0.9511
22200SOL    HW268042   4.476   4.194  11.756 -0.4723  1.2218 -0.1496
22201SOL     OW68043   6.051   4.025   3.831 -0.4503  0.2850  0.7381
22201SOL    HW168044   6.138   4.043   3.866 -0.0380  1.0801 -0.6082
22201SOL    HW268045   6.060   4.036   3.736 -2.5483  3.1004  0.6931
22202SOL     OW68046   4.133   6.981   5.493  0.3522 -0.1196 -0.4169
22202SOL    HW168047   4.103   6.942   5.575 -0.8035  0.9715 -0.2934
22202SOL    HW268048   4.129   6.909   5.430 -0.8563 -0.4613  0.0129
22203SOL     OW68049   2.539   7.332   9.110 -0.3795 -0.2854  0.1659
22203SOL    HW168050   2.572   7.257   9.160 -0.4801 -0.9840 -0.7827
22203SOL    HW268051   2.580   7.408   9.151  4.0036 -1.1361 -2.0060
22204SOL     OW68052   5.007   3.100   7.370  0.7310  0.2333 -0.1507
22204SOL    HW168053   4.990   3.187   7.405 -0.4114 -1.1172  2.9471
22204SOL    HW268054   5.077   3.065   7.425  0.1001 -1.3570 -0.3134
22205SOL     OW68055   2.845   3.048   5.416 -0.2519  0.7894 -0.2762
22205SOL    HW168056   2.940   3.040   5.423 -0.2870 -0.0094 -0.5824
22205SOL    HW268057   2.830   3.141   5.397  0.5149  0.7911 -0.9289
22206SOL     OW68058   7.115   7.472   3.091 -0.4633  0.1169 -0.3436
22206SOL    HW168059   7.087   7.564   3.092  1.1168  0.6285  1.1053
22206SOL    HW268060   7.201   7.474   3.049 -0.2902 -0.6707 -0.0378
22207SOL     OW68061   1.551   3.199   7.674  0.3664  0.2310 -0.0431
22207SOL    HW168062   1.520   3.218   7.586 -0.0948  1.1521  0.3060
22207SOL    HW268063   1.474   3.164   7.720  0.8088 -1.0628 -0.2228
22208SOL     OW68064   6.039   2.784  11.510  0.3494 -0.1820  0.1075
22208SOL    HW168065   5.997   2.706  11.546  0.9160 -0.8581 -0.6502
22208SOL    HW268066   5.986   2.806  11.433  0.5764 -0.2172 -0.0597
22209SOL     OW68067   5.247   2.611   1.301  0.2918  0.0483  0.1222
22209SOL    HW168068   5.174   2.567   1.259  0.6291 -1.0285  0.6140
22209SOL    HW268069   5.216   2.700   1.317 -0.9355 -0.4108  0.3894
22210SOL     OW68070   1.623   5.769   1.937  0.1037  0.2043 -0.3310
22210SOL    HW168071   1.660   5.682   1.953 -1.8897 -0.8698 -1.1687
22210SOL    HW268072   1.609   5.806   2.024  0.3807 -0.5761  0.0515
22211SOL     OW68073   1.260   4.981  10.618  0.0312 -0.4954  0.0834
22211SOL    HW168074   1.271   5.076  10.617  2.7349 -0.7290 -0.7327
22211SOL    HW268075   1.337   4.949  10.665 -0.7662 -2.3170  0.2432
22212SOL     OW68076   6.364   4.256  12.046  0.4802 -0.0049 -0.4015
22212SOL    HW168077   6.268   4.255  12.041  0.5265 -0.5640 -1.4655
22212SOL    HW268078   6.385   4.340  12.087 -0.4837 -0.1310  0.3750
22213SOL     OW68079   5.943   6.254   1.860 -0.6347  0.4870  0.3399
22213SOL    HW168080   6.038   6.246   1.865 -0.5305  0.6919 -0.9304
22213SOL    HW268081   5.914   6.170   1.824 -0.7663  1.0281 -0.8465
22214SOL     OW68082   4.181   7.581   4.921 -0.1475  0.1751  0.2073
22214SOL    HW168083   4.268   7.616   4.943  0.5157 -1.9683  1.2463
22214SOL    HW268084   4.141   7.650   4.868  3.0569  0.3810 -2.3129
22215SOL     OW68085   5.480   6.435  10.042  0.6349  0.3261  0.0775
22215SOL    HW168086   5.464   6.426  10.136 -0.3312  1.9747  0.1140
22215SOL    HW268087   5.480   6.345  10.009 -2.3234 -0.1715  1.1626
22216SOL     OW68088   1.822   5.455   5.601  0.6408 -0.7172  0.0153
22216SOL    HW168089   1.806   5.548   5.590  1.6229 -0.7064 -1.6948
22216SOL    HW268090   1.897   5.450   5.660  1.6349 -0.3324 -1.1820
22217SOL     OW68091   0.606   2.058   4.149 -0.0528  0.1388  0.2876
22217SOL    HW168092   0.676   2.114   4.115  1.1724 -0.7639  1.2431
22217SOL    HW268093   0.620   1.974   4.106 -0.1522 -0.2399  0.9873
22218SOL     OW68094   1.041   5.205   8.737 -0.4421  0.6003  0.4312
22218SOL    HW168095   0.969   5.142   8.747 -0.6331  0.5970 -0.8320
22218SOL    HW268096   1.023   5.272   8.803 -1.1434  0.1759  0.6943
22219SOL     OW68097   5.850   5.114   0.484  0.4438 -0.3317  0.1450
22219SOL    HW168098   5.773   5.130   0.539 -1.0085 -1.4482 -1.4352
22219SOL    HW268099   5.917   5.174   0.517 -1.7438  2.2010  0.3021
22220SOL     OW68100   6.195   3.391   7.724  0.0014 -1.0685  0.0905
22220SOL    HW168101   6.244   3.420   7.647 -2.0467  0.8256 -0.5801
22220SOL    HW268102   6.103   3.401   7.700 -0.7480  0.5792  3.0903
22221SOL     OW68103   7.595   4.783   8.443  0.1639 -0.1264  0.4811
22221SOL    HW168104   7.632   4.871   8.442 -0.1512  0.0100  0.5016
22221SOL    HW268105   7.509   4.793   8.400 -0.4413 -0.1666  1.6549
22222SOL     OW68106   7.077   4.983   8.671 -0.0404 -0.3053  0.4650
22222SOL    HW168107   7.129   5.046   8.720  0.1547  0.6381 -0.8781
22222SOL    HW268108   6.990   5.024   8.665  0.1997  0.0612 -0.7720
22223SOL     OW68109   0.097   4.543   8.895 -0.5167  0.4489  0.3662
22223SOL    HW168110   0.080   4.495   8.976 -0.8917 -1.1126 -0.5783
22223SOL    HW268111   0.053   4.491   8.827 -0.5438  1.9125 -0.7883
22224SOL     OW68112   2.311   1.152   9.237 -0.6373 -0.3283  0.4492
22224SOL    HW168113   2.253   1.210   9.188  2.7364  0.8654 -2.5912
22224SOL    HW268114   2.338   1.204   9.313  0.1978  1.1230 -0.7819
22225SOL     OW68115   7.421   3.463   0.762  1.1371  0.5387 -0.3406
22225SOL    HW168116   7.333   3.500   0.769  0.3014 -1.5302  1.1022
22225SOL    HW268117   7.472   3.511   0.827  1.1770  1.8830 -1.3174
22226SOL     OW68118   7.798   0.871   6.932 -0.1244 -0.0880  0.7926
22226SOL    HW168119   7.831   0.811   6.998  0.2758 -0.8416 -0.0718
22226SOL    HW268120   7.707   0.844   6.918 -0.2032  0.0598  1.0127
22227SOL     OW68121   0.294   4.177   3.842 -0.4427 -0.5122 -0.0026
22227SOL    HW168122   0.296   4.273   3.838  1.0863 -0.5000  0.5447
22227SOL    HW268123   0.259   4.157   3.928  0.6985 -0.4121  0.4995
22228SOL     OW68124   3.119   3.703  11.654  0.2853  0.1651 -0.6168
22228SOL    HW168125   3.047   3.664  11.605  0.3539 -1.0585  0.2107
22228SOL    HW268126   3.197   3.679  11.604  0.3076 -0.6042 -0.2342
22229SOL     OW68127   4.612   2.429  10.881  0.0554  0.5110 -0.0386
22229SOL    HW168128   4.520   2.456  10.890 -0.1250 -0.2041  0.3361
22229SOL    HW268129   4.607   2.339  10.851  0.6554  0.9385 -1.4922
22230SOL     OW68130   7.401   3.697   1.204 -0.0993 -0.3552  0.0411
22230SOL    HW168131   7.386   3.786   1.236  0.1054 -0.5225  0.6286
22230SOL    HW268132   7.418   3.646   1.284  1.1082 -0.6583 -0.3951
22231SOL     OW68133   2.931   4.783   4.903  0.2693 -0.3041  0.2838
22231SOL    HW168134   2.838   4.762   4.899  0.0481  0.3667  1.3842
22231SOL    HW268135   2.935   4.878   4.893  0.6394 -0.0692  2.1827
22232SOL     OW68136   3.168   4.825  10.062  0.0218 -0.0816  0.0229
22232SOL    HW168137   3.094   4.868  10.105  0.2162  0.2119  0.0689
22232SOL    HW268138   3.204   4.767  10.129  1.7227  2.0413  1.0489
22233SOL     OW68139   0.050   0.143   9.302 -0.2743  0.3190 -0.2845
22233SOL    HW168140   0.064   0.138   9.397 -0.1276 -2.4368 -0.3946
22233SOL    HW268141   0.138   0.148   9.265 -0.0640 -2.4351 -0.3580
22234SOL     OW68142   0.762   6.384   2.603 -0.2496 -0.2885  0.4962
22234SOL    HW168143   0.760   6.378   2.698  2.1837 -0.2810  0.6014
22234SOL    HW268144   0.828   6.320   2.575  0.5608  1.1120 -1.0085
22235SOL     OW68145   5.490   0.766  12.387 -0.2163 -0.1399 -0.2199
22235SOL    HW168146   5.463   0.844  12.435  0.9614 -1.5803  3.0836
22235SOL    HW268147   5.585   0.771  12.384 -0.1319 -1.3602 -0.0735
22236SOL     OW68148   0.922   2.294   3.007  0.7019 -0.1780 -0.1616
22236SOL    HW168149   0.975   2.283   2.928  0.3746 -0.9211 -0.2829
22236SOL    HW268150   0.834   2.316   2.974  0.1952 -1.9599 -0.0697
22237SOL     OW68151   4.474   6.641   8.077  0.0206  0.3136  0.1482
22237SOL    HW168152   4.500   6.573   8.015  0.3223  1.2393 -0.7723
22237SOL    HW268153   4.542   6.708   8.070 -0.7125  1.1044  0.3807
22238SOL     OW68154   6.402   5.029   5.022 -0.3752  0.4809 -0.0013
22238SOL    HW168155   6.478   5.074   5.059  0.1063 -0.3499  0.0399
22238SOL    HW268156   6.436   4.945   4.991 -1.1032  0.4682 -0.8076
22239SOL     OW68157   0.942   7.104   3.470  0.3464  0.4460 -0.1390
22239SOL    HW168158   0.953   7.013   3.498  0.3639  0.3615 -0.4138
22239SOL    HW268159   0.910   7.097   3.380 -0.7499  0.7018  0.2251
22240SOL     OW68160   1.002   0.745   4.918 -0.2885  0.2558  0.6787
22240SOL    HW168161   1.061   0.671   4.903  0.3432  0.8556  0.1231
22240SOL    HW268162   0.914   0.707   4.914 -0.0458 -0.2119 -1.1908
22241SOL     OW68163   1.179   6.709  10.299 -0.1337 -0.1033  0.8232
22241SOL    HW168164   1.138   6.732  10.216 -1.2834 -0.1192  1.3720
22241SOL    HW268165   1.196   6.793  10.341  0.4270 -0.0963  0.5955
22242SOL     OW68166   5.580   4.839  10.989 -0.2126  0.3195  0.0537
22242SOL    HW168167   5.486   4.844  11.006 -0.0013 -0.3939  1.6748
22242SOL    HW268168   5.607   4.756  11.029  1.0775  0.4435 -0.5100
22243SOL     OW68169   1.544   4.515   8.499  0.2857  0.7728 -0.0812
22243SOL    HW168170   1.459   4.558   8.512 -0.6733 -1.5270  2.1392
22243SOL    HW268171   1.524   4.440   8.443  0.6755 -0.1108  0.9264
22244SOL     OW68172   4.239   2.603   2.135  0.3351 -0.3994  0.0925
22244SOL    HW168173   4.278   2.516   2.141 -0.7842 -0.9416 -0.3098
22244SOL    HW268174   4.155   2.595   2.179 -0.0371  0.3217 -0.4646
22245SOL     OW68175   4.596   1.148   1.681  0.4758  0.4469 -0.2600
22245SOL    HW168176   4.542   1.109   1.612  0.4201  2.1598 -1.2448
22245SOL    HW268177   4.669   1.188   1.633  0.6699  1.2933  0.7277
22246SOL     OW68178   0.651   3.050   2.963  0.6928 -0.7032  0.4945
22246SOL    HW168179   0.584   2.982   2.968  1.4731 -1.5065  0.2677
22246SOL    HW268180   0.604   3.131   2.984 -0.2548 -1.2988  0.7556
22247SOL     OW68181   7.910   6.052   4.515 -0.0269  0.0019 -0.4150
22247SOL    HW168182   7.910   6.047   4.420  1.3688  2.1637 -0.5934
22247SOL    HW268183   7.825   6.016   4.541 -1.2213  1.0792 -2.5907
22248SOL     OW68184   1.096   7.798   3.330 -0.2535  0.3596  0.0955
22248SOL    HW168185   1.078   7.883   3.288 -1.4355  0.1111  0.0570
22248SOL    HW268186   1.024   7.787   3.393 -0.1095 -0.6104  0.1010
22249SOL     OW68187   1.609   1.591   8.924  0.4043  0.4913 -0.0415
22249SOL    HW168188   1.676   1.660   8.927  0.0522  0.7896  1.1171
22249SOL    HW268189   1.588   1.583   8.830  0.7972  1.6189 -0.2453
22250SOL     OW68190   1.359   2.905   9.947  0.3089 -0.0736 -0.2186
22250SOL    HW168191   1.370   2.996   9.974  0.8299  0.3056 -1.6328
22250SOL    HW268192   1.340   2.910   9.853  0.7009 -1.4412 -0.3873
22251SOL     OW68193   3.397   3.814   4.284 -0.2120  0.1075  0.0657
22251SOL    HW168194   3.478   3.772   4.254 -1.3501 -0.3995 -2.4955
22251SOL    HW268195   3.334   3.743   4.292 -0.7891  0.6810  0.7912
22252SOL     OW68196   7.343   0.264   7.833 -0.6458  0.5528 -0.0030
22252SOL    HW168197   7.281   0.198   7.865 -0.2852  0.0982 -0.2338
22252SOL    HW268198   7.392   0.292   7.910  1.0504 -1.4051 -0.2927
22253SOL     OW68199   3.597   3.170  10.383 -0.2373  0.1916 -0.3482
22253SOL    HW168200   3.512   3.159  10.427 -0.4672  1.8184 -0.3177
22253SOL    HW268201   3.575   3.215  10.301  0.5852  0.6866 -0.3069
22254SOL     OW68202   5.021   7.031   4.371 -0.4039 -0.6312  0.4179
22254SOL    HW168203   5.050   6.944   4.400 -1.6703 -1.8067 -1.6113
22254SOL    HW268204   5.059   7.041   4.284 -2.2319 -0.2339 -0.3731
22255SOL     OW68205   3.017   1.038   8.604 -0.3400 -0.7823 -0.0165
22255SOL    HW168206   2.962   0.968   8.570 -0.2250 -1.5583  1.3449
22255SOL    HW268207   3.071   0.996   8.671  0.8089  0.2907 -0.2282
22256SOL     OW68208   7.585   2.519   9.334  0.4309 -0.1383  0.5368
22256SOL    HW168209   7.648   2.572   9.383 -0.9495 -0.2352  2.5333
22256SOL    HW268210   7.517   2.581   9.306 -0.1958 -0.5122  1.1902
22257SOL     OW68211   5.075   5.321   3.822 -0.2624  0.1215  0.3060
22257SOL    HW168212   5.142   5.262   3.788  0.3549  0.9164  0.1186
22257SOL    HW268213   5.086   5.402   3.772 -2.7694 -0.3931 -1.2620
22258SOL     OW68214   1.530   2.921   3.040 -0.2838 -1.1869 -0.3059
22258SOL    HW168215   1.506   3.013   3.029  0.4313 -0.8758  0.6212
22258SOL    HW268216   1.447   2.874   3.049 -0.6544 -0.6541 -0.8953
22259SOL     OW68217   0.478   5.297   3.152 -0.6745  0.0044 -0.7200
22259SOL    HW168218   0.570   5.273   3.164 -0.7959 -0.5347 -0.8493
22259SOL    HW268219   0.477   5.393   3.160 -0.2687 -0.0640  0.4244
22260SOL     OW68220   0.490   6.495   5.755  0.1565  0.0424  0.4990
22260SOL    HW168221   0.558   6.431   5.776  0.9152  1.2598  1.8630
22260SOL    HW268222   0.537   6.577   5.741 -0.6925  0.1637 -2.2559
22261SOL     OW68223   5.546   2.195  11.540 -0.5186  0.0398  0.1745
22261SOL    HW168224   5.621   2.169  11.594  0.4631  1.0311 -0.6584
22261SOL    HW268225   5.568   2.283  11.510 -1.6394  0.0105 -0.7857
22262SOL     OW68226   6.358   5.528   8.366 -0.5024 -0.6383  0.5461
22262SOL    HW168227   6.445   5.566   8.375  0.4283 -2.6115  0.4018
22262SOL    HW268228   6.312   5.587   8.305  0.2814  1.0881  1.5477
22263SOL     OW68229   4.870   3.365   3.940  0.2282 -0.1287  0.6206
22263SOL    HW168230   4.832   3.421   3.872  1.7059  0.3072  0.1133
22263SOL    HW268231   4.915   3.296   3.892  0.3414 -0.4542  1.1921
22264SOL     OW68232   6.292   7.639   8.599 -0.0001 -0.4890  0.4006
22264SOL    HW168233   6.217   7.686   8.634 -0.6110 -0.8845 -0.3503
22264SOL    HW268234   6.263   7.608   8.513  1.3811  0.2966 -0.3887
22265SOL     OW68235   4.299   2.928   5.117  0.2376  0.4009  0.9632
22265SOL    HW168236   4.297   2.913   5.212  0.6561  0.7341  1.0277
22265SOL    HW268237   4.216   2.972   5.098 -0.3696 -0.7110  0.9901
22266SOL     OW68238   2.453   0.088   1.325 -0.3015 -0.0775 -0.9320
22266SOL    HW168239   2.539   0.061   1.293  0.0382  1.7998 -1.7405
22266SOL    HW268240   2.454   0.067   1.418  0.2738 -1.8630 -1.3206
22267SOL     OW68241   2.977   1.860   0.071  0.4872  0.2240  0.1619
22267SOL    HW168242   2.944   1.770   0.068  2.7087 -0.6329 -1.0039
22267SOL    HW268243   2.914   1.910   0.019  0.6237 -1.2217 -1.5147
22268SOL     OW68244   6.591   6.975   2.632 -0.0618 -0.2123 -0.0223
22268SOL    HW168245   6.575   6.999   2.723 -0.7670 -0.0614 -0.1788
22268SOL    HW268246   6.687   6.975   2.623 -0.0077  2.1360  0.0844
22269SOL     OW68247   2.176   4.438  10.811 -0.4150  0.1303 -0.0226
22269SOL    HW168248   2.136   4.525  10.820 -1.5131 -0.1305 -1.8432
22269SOL    HW268249   2.133   4.385  10.879 -0.3564  0.7768  0.5352
22270SOL     OW68250   7.041   4.867  11.998  0.0170  0.2058 -0.2049
22270SOL    HW168251   7.116   4.835  11.947  1.1014  0.3548  1.2502
22270SOL    HW268252   7.051   4.962  11.998 -1.2053  0.3716 -1.4982
22271SOL     OW68253   2.671   4.888  10.168 -0.0397 -0.3848  0.1242
22271SOL    HW168254   2.594   4.895  10.225 -0.9158  2.5390 -1.2488
22271SOL    HW268255   2.668   4.966  10.114  3.4241 -0.6564 -0.6706
22272SOL     OW68256   5.083   4.690   3.105 -0.0424 -0.6927  0.3942
22272SOL    HW168257   5.141   4.656   3.037 -1.1431 -0.2554 -0.8180
22272SOL    HW268258   5.083   4.785   3.091  0.4496 -0.4865  1.6321
22273SOL     OW68259   0.530   3.849   8.665  0.1173 -0.1328  0.3450
22273SOL    HW168260   0.611   3.798   8.674  0.1121 -0.1623  0.2182
22273SOL    HW268261   0.497   3.827   8.578  0.5622  0.7206 -0.0543
22274SOL     OW68262   6.499   2.134   6.225 -0.6250  0.2960  0.3024
22274SOL    HW168263   6.437   2.203   6.203  0.5406  1.2854  0.0418
22274SOL    HW268264   6.475   2.061   6.168 -1.5784  0.6443  0.2545
22275SOL     OW68265   1.731   6.288   7.966  0.1659  0.1818  0.0203
22275SOL    HW168266   1.635   6.294   7.963  0.0241 -0.8888  1.3555
22275SOL    HW268267   1.761   6.349   7.899 -1.4657 -0.1117 -1.0347
22276SOL     OW68268   1.394   1.737   9.071  0.1480  0.0998  0.3539
22276SOL    HW168269   1.401   1.822   9.029 -1.0023  0.6568  1.2450
22276SOL    HW268270   1.442   1.677   9.013  0.2025  1.1785 -0.7417
22277SOL     OW68271   5.563   0.681   4.651  0.4661 -0.0687 -0.1807
22277SOL    HW168272   5.616   0.700   4.573  1.1006 -2.8260 -0.5471
22277SOL    HW268273   5.583   0.752   4.712  0.9177  1.4920 -2.0477
22278SOL     OW68274   7.249   7.173   5.950  0.3455 -0.6483 -0.1389
22278SOL    HW168275   7.275   7.132   6.033  0.4323  0.6050  0.4851
22278SOL    HW268276   7.287   7.117   5.883  1.0687 -1.1798  0.6860
22279SOL     OW68277   6.975   0.195   0.960  0.1545  0.2075 -0.1658
22279SOL    HW168278   6.928   0.122   0.920 -2.4662  2.1137 -0.8300
22279SOL    HW268279   6.911   0.236   1.018  1.7629  1.5846  0.7515
22280SOL     OW68280   0.205   0.032  11.259 -0.3982 -0.6440  0.2193
22280SOL    HW168281   0.207   0.128  11.261 -1.6872 -0.5979 -0.2919
22280SOL    HW268282   0.292   0.007  11.228  0.3727  0.3109  1.5126
22281SOL     OW68283   4.237   6.849   9.482 -0.1825 -0.1908 -0.0123
22281SOL    HW168284   4.226   6.769   9.429  0.5974  0.9576 -2.0200
22281SOL    HW268285   4.323   6.839   9.522  0.3092  0.0073 -0.9839
22282SOL     OW68286   3.953   2.247  11.926  0.0664  0.2412 -0.3682
22282SOL    HW168287   3.906   2.188  11.865 -0.7929  0.6183 -0.0935
22282SOL    HW268288   4.027   2.195  11.957 -1.0693 -0.9744  0.4200
22283SOL     OW68289   0.059   5.145   5.936  0.5078  0.1089 -0.1451
22283SOL    HW168290   0.030   5.113   5.850 -0.0956 -0.2416  0.1854
22283SOL    HW268291   0.151   5.120   5.940  0.7963  0.9595 -1.0785
22284SOL     OW68292   5.967   0.509   4.196  0.0239 -0.1029 -0.3610
22284SOL    HW168293   5.890   0.470   4.155 -0.4105  1.1117 -0.7468
22284SOL    HW268294   5.990   0.449   4.266 -0.3768 -1.2442 -1.1788
22285SOL     OW68295   0.503   5.451  11.518 -0.4938  0.6422  0.0103
22285SOL    HW168296   0.426   5.499  11.486 -0.2338 -0.2994 -2.1828
22285SOL    HW268297   0.548   5.422  11.439  1.2147 -0.2957  1.2609
22286SOL     OW68298   1.803   1.552   0.996 -0.2191 -0.0450  0.3499
22286SOL    HW168299   1.736   1.534   1.061 -1.2070 -1.1861 -0.9158
22286SOL    HW268300   1.857   1.473   0.995 -1.6448 -1.0932 -1.8118
22287SOL     OW68301   7.624   6.727   0.870 -0.2539  0.1048  0.1077
22287SOL    HW168302   7.632   6.779   0.790 -1.7909  0.3919  0.1170
22287SOL    HW268303   7.610   6.637   0.839 -1.8737  0.3662  0.0046
22288SOL     OW68304   4.489   2.190   6.366 -0.2388  0.3846 -0.2058
22288SOL    HW168305   4.584   2.182   6.370 -0.3051 -0.1687  0.5389
22288SOL    HW268306   4.468   2.175   6.274  0.1755 -2.6307  0.0867
22289SOL     OW68307   5.668   6.888   5.625 -0.4740  0.4168  0.3311
22289SOL    HW168308   5.650   6.902   5.718 -0.0059  1.8829  0.2241
22289SOL    HW268309   5.751   6.841   5.623 -1.6143 -1.7606  0.6772
22290SOL     OW68310   0.647   6.419   4.736 -0.3264 -0.1376 -0.1406
22290SOL    HW168311   0.642   6.444   4.643 -0.8497  1.2312  0.2313
22290SOL    HW268312   0.722   6.468   4.769 -0.5076 -0.1491  0.2881
22291SOL     OW68313   7.266   4.884   5.870  0.3785  0.3402  0.2291
22291SOL    HW168314   7.180   4.898   5.909 -0.4021 -1.9273 -0.5341
22291SOL    HW268315   7.284   4.965   5.822 -1.7633  0.5167 -0.3540
22292SOL     OW68316   7.502   0.980   7.741  0.7130  0.2403  0.4901
22292SOL    HW168317   7.522   0.982   7.835 -1.5289  0.0992  1.0425
22292SOL    HW268318   7.410   1.007   7.736  0.3090 -1.2635 -1.4975
22293SOL     OW68319   7.440   3.581   5.890  0.0313  0.1946  0.5368
22293SOL    HW168320   7.396   3.508   5.846  1.1059  0.2013 -0.6229
22293SOL    HW268321   7.477   3.633   5.819  1.6312  0.3339  1.4073
22294SOL     OW68322   6.886   5.211   5.099  0.3882  0.3814 -0.4137
22294SOL    HW168323   6.826   5.242   5.166 -2.5588 -2.6709 -1.3341
22294SOL    HW268324   6.862   5.261   5.021 -1.9939 -1.5498 -1.0590
22295SOL     OW68325   4.615   1.621  11.831  0.2413  0.4246  0.2389
22295SOL    HW168326   4.631   1.528  11.819  1.8009  0.7126 -0.0558
22295SOL    HW268327   4.616   1.658  11.743  0.4593  0.8476  0.4143
22296SOL     OW68328   1.395   4.608  11.583 -0.2490 -0.3642  0.1036
22296SOL    HW168329   1.369   4.536  11.642 -0.2784 -1.2334 -0.9448
22296SOL    HW268330   1.434   4.564  11.508  1.1874  0.7951  0.1286
22297SOL     OW68331   1.123   2.937   2.484  0.2026  0.1324  0.1904
22297SOL    HW168332   1.194   2.874   2.499  1.9295  0.6886 -4.2117
22297SOL    HW268333   1.045   2.883   2.478  1.4313 -1.6019 -1.9783
22298SOL     OW68334   1.695   6.733   9.067  0.1412 -0.1384 -0.0529
22298SOL    HW168335   1.684   6.781   8.984  2.2970  0.0301 -0.3040
22298SOL    HW268336   1.717   6.801   9.131  0.2083 -0.4587  0.2638
22299SOL     OW68337   6.950   2.954   9.648  0.2322  0.1867 -0.1585
22299SOL    HW168338   6.971   2.882   9.707  0.3001 -0.9991 -1.6026
22299SOL    HW268339   6.873   2.996   9.689  0.4280 -0.4363  0.8907
22300SOL     OW68340   3.802   4.135   9.957 -0.0175 -0.7455 -0.0181
22300SOL    HW168341   3.845   4.121   9.873  0.2607  1.5880 -0.3305
22300SOL    HW268342   3.871   4.171  10.013 -0.7083 -0.2740  0.5482
22301SOL     OW68343   0.805   5.990   1.039  0.0246 -0.0678  0.3420
22301SOL    HW168344   0.777   6.014   1.127 -0.6767 -1.7424  0.6008
22301SOL    HW268345   0.820   5.896   1.043  2.5875  0.2145 -0.6396
22302SOL     OW68346   6.754   7.775   7.767  0.4356  0.2151 -0.4797
22302SOL    HW168347   6.837   7.730   7.752  0.5506  0.4634 -0.5991
22302SOL    HW268348   6.751   7.843   7.699  0.6051  0.8592  0.1523
22303SOL     OW68349   0.719   5.273   1.353  0.3167  0.7456 -0.4362
22303SOL    HW168350   0.718   5.178   1.365  1.4113  0.8234  0.4847
22303SOL    HW268351   0.653   5.290   1.286 -2.1706 -0.3437  1.5665
22304SOL     OW68352   7.538   7.817   2.984  0.0751  0.3798  0.7109
22304SOL    HW168353   7.453   7.783   2.955 -0.3045  2.0267 -0.2413
22304SOL    HW268354   7.537   7.804   3.079 -1.1903  0.2626  0.7100
22305SOL     OW68355   5.397   5.578   2.276 -0.2275 -0.5129  0.5173
22305SOL    HW168356   5.349   5.495   2.284 -2.8132  0.5212 -2.2727
22305SOL    HW268357   5.334   5.644   2.302  0.6590  0.7656 -0.4836
22306SOL     OW68358   4.285   1.953   4.566 -0.0609  0.3491  0.2412
22306SOL    HW168359   4.279   2.017   4.496 -1.0251 -2.8569 -2.8801
22306SOL    HW268360   4.194   1.939   4.594  0.3276  1.7619  2.4440
22307SOL     OW68361   3.444   5.000  10.078 -0.5317 -0.0290 -0.1833
22307SOL    HW168362   3.429   5.077  10.133 -0.6309 -0.2727  0.1356
22307SOL    HW268363   3.514   5.026  10.019 -0.2318  0.1438  0.2448
22308SOL     OW68364   5.432   7.896   7.524 -0.2039 -0.4043  0.0111
22308SOL    HW168365   5.386   7.974   7.555 -1.7226 -0.7716 -1.2450
22308SOL    HW268366   5.497   7.929   7.462 -1.3068 -0.1587 -1.0463
22309SOL     OW68367   4.942   7.602   0.159 -0.4081  0.3268  0.9366
22309SOL    HW168368   4.960   7.686   0.118  0.1899  0.2988  1.1346
22309SOL    HW268369   4.861   7.616   0.207  0.9720  1.5655  3.0661
22310SOL     OW68370   0.054   4.872   0.184  0.7419  0.0794 -0.5564
22310SOL    HW168371   0.148   4.875   0.202  1.1450  2.8488 -2.5424
22310SOL    HW268372   0.013   4.876   0.271  2.4601  0.3995  0.2867
22311SOL     OW68373   5.136   2.539   3.747 -0.0454 -0.1151 -0.0130
22311SOL    HW168374   5.096   2.452   3.741 -0.1573 -0.2893  2.2781
22311SOL    HW268375   5.221   2.524   3.789 -0.3187  0.9251  0.9647
22312SOL     OW68376   7.304   3.731   4.487  0.3915  0.2267  0.2762
22312SOL    HW168377   7.364   3.657   4.484  0.9504  0.6560  0.6172
22312SOL    HW268378   7.252   3.724   4.407 -0.2259 -1.0734  0.7666
22313SOL     OW68379   4.836   1.059  10.351  0.2623  0.3901 -0.4458
22313SOL    HW168380   4.746   1.049  10.383  0.2436  2.8729  0.4842
22313SOL    HW268381   4.829   1.045  10.256 -1.5115  2.3512 -0.6765
22314SOL     OW68382   7.341   7.260  11.365  0.4856  0.4738  0.0466
22314SOL    HW168383   7.322   7.187  11.305 -0.0121  0.9253 -0.3512
22314SOL    HW268384   7.279   7.328  11.340  0.7728  0.9411  0.5958
22315SOL     OW68385   4.635   1.268  11.615  0.1422  0.2025 -0.0929
22315SOL    HW168386   4.586   1.186  11.616  1.0474 -0.3477  0.7400
22315SOL    HW268387   4.571   1.333  11.586 -0.9640 -0.5700  0.5178
22316SOL     OW68388   5.519   7.847  11.100  0.4038 -0.5370 -0.1162
22316SOL    HW168389   5.497   7.911  11.032  1.5983  0.6181  0.5703
22316SOL    HW268390   5.434   7.818  11.133 -0.1802  1.5567  0.3534
22317SOL     OW68391   6.148   2.795   2.714 -0.3600 -0.5283 -0.5688
22317SOL    HW168392   6.231   2.800   2.762 -0.6412  0.8345 -0.1751
22317SOL    HW268393   6.131   2.702   2.704  0.3766 -0.8376  0.8537
22318SOL     OW68394   5.961   2.792   7.010  0.0846 -0.0576 -0.4414
22318SOL    HW168395   5.887   2.845   7.039 -1.4344 -0.1567 -3.6520
22318SOL    HW268396   5.932   2.701   7.025  0.2638 -0.0662 -0.1537
22319SOL     OW68397   6.564   7.368   2.926  0.3147 -0.2288 -0.1999
22319SOL    HW168398   6.645   7.414   2.905 -0.4909  0.9668 -0.8489
22319SOL    HW268399   6.526   7.418   2.998  0.2968 -0.9725  0.3168
22320SOL     OW68400   5.284   2.249   8.729 -0.0768  0.2820  0.0573
22320SOL    HW168401   5.226   2.190   8.776 -0.1116  0.6850  0.5344
22320SOL    HW268402   5.305   2.318   8.793  0.0084  0.7508 -0.4678
22321SOL     OW68403   0.094   3.919   4.637 -0.0614  0.6080  0.4916
22321SOL    HW168404   0.019   3.876   4.678  0.5007 -2.1597 -1.1818
22321SOL    HW268405   0.141   3.958   4.710 -0.9933 -1.0678  2.0771
22322SOL     OW68406   1.285   1.637  12.000  0.0538  0.1295 -0.0908
22322SOL    HW168407   1.200   1.593  11.995  1.0452 -1.8705 -0.2554
22322SOL    HW268408   1.324   1.624  11.913  1.1043 -0.2323  0.4200
22323SOL     OW68409   0.269   1.165   8.182 -0.8714  0.5361  0.0988
22323SOL    HW168410   0.285   1.200   8.270 -0.1890 -1.4296  0.8314
22323SOL    HW268411   0.355   1.167   8.140 -0.6879 -0.6923  0.3667
22324SOL     OW68412   0.409   0.037   8.060  0.3453 -0.4036  0.0436
22324SOL    HW168413   0.380   0.089   7.985 -0.4161 -0.9353 -0.0478
22324SOL    HW268414   0.328   0.005   8.099  0.7520 -0.4268  0.8817
22325SOL     OW68415   5.217   0.117   4.901  0.4378  0.0559 -0.0531
22325SOL    HW168416   5.181   0.151   4.983 -0.2736 -0.0007 -0.3292
22325SOL    HW268417   5.235   0.195   4.849 -0.1077  0.0606 -0.2434
22326SOL     OW68418   2.419   3.677   7.383  0.3059 -0.1376  0.0538
22326SOL    HW168419   2.485   3.630   7.434  0.6433  1.3808  1.0918
22326SOL    HW268420   2.442   3.769   7.394 -0.5175  0.3073 -1.6558
22327SOL     OW68421   2.618   2.966   0.871 -0.1443 -0.0414 -0.3339
22327SOL    HW168422   2.525   2.944   0.872 -0.3372  0.6888 -1.1684
22327SOL    HW268423   2.663   2.881   0.864 -0.5665 -0.7263  3.3551
22328SOL     OW68424   3.218   5.065   0.266 -0.2804 -0.6191 -0.0845
22328SOL    HW168425   3.269   5.019   0.333  1.5475  0.8564 -0.3834
22328SOL    HW268426   3.210   5.154   0.299 -0.1230 -0.0965 -1.4111
22329SOL     OW68427   7.009   3.845   2.241  0.0803 -0.2791 -0.0295
22329SOL    HW168428   7.017   3.753   2.214  0.6919 -0.5904  1.1552
22329SOL    HW268429   6.970   3.888   2.165  0.0905 -1.4502 -0.7353
22330SOL     OW68430   0.624   5.215   9.561  0.6417 -0.3333  0.2574
22330SOL    HW168431   0.694   5.248   9.505  1.3385 -1.6391  0.3096
22330SOL    HW268432   0.630   5.268   9.641  1.2421 -0.0914  0.0611
22331SOL     OW68433   6.200   1.445   9.090 -0.2970  0.3504  0.0120
22331SOL    HW168434   6.189   1.443   8.995  0.4612  0.7787 -0.0869
22331SOL    HW268435   6.111   1.439   9.124 -0.4883 -1.4692 -0.6919
22332SOL     OW68436   0.208   7.643  10.568 -0.0439  0.2487  0.1648
22332SOL    HW168437   0.131   7.658  10.512  1.0769 -0.2853 -1.6054
22332SOL    HW268438   0.219   7.724  10.617 -1.7230  0.3311  0.4716
22333SOL     OW68439   3.105   2.249   1.618  0.2768 -0.5222 -0.4117
22333SOL    HW168440   3.097   2.333   1.663  1.7286 -0.9575  0.7962
22333SOL    HW268441   3.093   2.184   1.688  0.8541 -1.2651 -0.9880
22334SOL     OW68442   3.069   3.945   1.468 -0.2460  0.3236 -0.4496
22334SOL    HW168443   3.050   3.880   1.401  2.1382  0.1798 -1.0640
22334SOL    HW268444   3.118   3.897   1.535 -1.4027  0.7713  0.7509
22335SOL     OW68445   2.681   7.565   2.134 -0.0218  0.5094 -0.2253
22335SOL    HW168446   2.775   7.564   2.114 -0.2653 -1.1660 -1.4507
22335SOL    HW268447   2.670   7.639   2.194  2.1404  0.4693  0.2817
22336SOL     OW68448   0.489   6.022   2.316  0.2951  0.4815  0.6418
22336SOL    HW168449   0.504   6.082   2.390 -1.0312  0.8372  0.6415
22336SOL    HW268450   0.427   5.958   2.350 -0.8200  1.0109 -0.3407
22337SOL     OW68451   1.068   5.147   5.430  0.2589  0.5872 -0.3158
22337SOL    HW168452   1.156   5.186   5.432  0.7532 -0.3735 -1.6907
22337SOL    HW268453   1.072   5.083   5.359 -1.6443  0.7089 -0.5821
22338SOL     OW68454   5.985   1.372   4.350 -0.0583  0.2144 -0.0444
22338SOL    HW168455   6.059   1.385   4.290  0.8632  1.5074  1.3025
22338SOL    HW268456   5.919   1.434   4.320 -0.4295 -0.5963 -0.9522
22339SOL     OW68457   7.142   3.013   8.270 -0.3428 -0.0120 -0.1811
22339SOL    HW168458   7.080   2.940   8.267  0.3930 -0.8231  2.1280
22339SOL    HW268459   7.219   2.980   8.224 -0.7241  0.0524 -0.8679
22340SOL     OW68460   2.668   6.495   7.815  0.6643  0.3870 -0.0875
22340SOL    HW168461   2.662   6.579   7.860 -1.1152 -0.3159  1.0975
22340SOL    HW268462   2.708   6.436   7.880  2.3771  0.3931 -1.0834
22341SOL     OW68463   1.723   3.427   8.718  0.3473 -0.8189  0.1761
22341SOL    HW168464   1.721   3.388   8.630  0.6956  1.8089 -1.0870
22341SOL    HW268465   1.668   3.369   8.771  0.7380 -2.9082 -1.5519
22342SOL     OW68466   3.053   6.044   7.577 -0.3597 -0.4999 -0.2719
22342SOL    HW168467   3.050   6.031   7.672  0.6333 -1.3407 -0.3447
22342SOL    HW268468   3.016   5.963   7.541  2.2341 -1.6151 -0.6441
22343SOL     OW68469   1.968   6.613   9.326  0.0451  0.0723 -0.3421
22343SOL    HW168470   2.037   6.677   9.306  0.7246 -0.4271  0.3578
22343SOL    HW268471   1.912   6.614   9.248  0.8578  0.4652 -0.9365
22344SOL     OW68472   7.668   6.224   1.935 -0.0493 -0.2666 -0.4200
22344SOL    HW168473   7.754   6.251   1.968  1.2207 -1.4465 -2.5739
22344SOL    HW268474   7.636   6.162   2.000  0.4726  0.5526  0.6630
22345SOL     OW68475   0.355   0.007   4.827  0.0089 -0.0728 -0.0382
22345SOL    HW168476   0.447   0.034   4.830 -0.2947  0.9938  0.2079
22345SOL    HW268477   0.358  -0.089   4.822  1.1287 -0.0438 -0.1662
22346SOL     OW68478   6.321   5.967   6.751 -0.0680 -0.1491 -0.2922
22346SOL    HW168479   6.275   5.888   6.778 -0.8485  0.6117  0.6831
22346SOL    HW268480   6.363   5.943   6.668 -0.5554 -1.4710 -0.1817
22347SOL     OW68481   0.022   3.803  11.910  0.2072 -0.1578 -0.2037
22347SOL    HW168482   0.042   3.731  11.851  1.7277  0.8651 -1.0194
22347SOL    HW268483  -0.071   3.820  11.898  0.0604 -1.2983 -0.7651
22348SOL     OW68484   2.956   6.899   2.023 -0.3728  0.5708  0.2150
22348SOL    HW168485   2.960   6.828   2.088 -1.8692  0.2870  0.0270
22348SOL    HW268486   3.031   6.882   1.966  0.3244  0.1862  1.2038
22349SOL     OW68487   7.308   5.931   7.688  0.1121  0.2377 -0.3023
22349SOL    HW168488   7.241   5.975   7.636  1.8288  1.9642 -1.1803
22349SOL    HW268489   7.363   5.887   7.624 -0.3980 -1.5602  0.4377
22350SOL     OW68490   4.101   5.614   9.494 -0.0031 -0.5200 -0.0258
22350SOL    HW168491   4.064   5.561   9.564 -1.3207 -2.3521 -1.9733
22350SOL    HW268492   4.097   5.704   9.526 -1.4975 -1.1924  1.8294
22351SOL     OW68493   3.620   1.257  11.347 -0.3999  0.4915 -0.1819
22351SOL    HW168494   3.684   1.325  11.367 -0.3846  0.5954 -0.5764
22351SOL    HW268495   3.545   1.304  11.309  0.6853  0.0887 -3.1381
22352SOL     OW68496   7.481   7.171   0.181  0.1472  0.6107 -0.4996
22352SOL    HW168497   7.400   7.214   0.208 -1.5421 -3.0662  1.0252
22352SOL    HW268498   7.542   7.188   0.253 -0.2497  0.9962 -0.2508
22353SOL     OW68499   0.026   2.300  12.068 -0.1169 -0.7875  0.5629
22353SOL    HW168500   0.015   2.241  11.993  0.3382 -0.4260  0.2066
22353SOL    HW268501  -0.061   2.306  12.107  0.0968 -2.9329  1.5380
22354SOL     OW68502   7.892   7.198  11.544 -0.1351  0.1656  0.1335
22354SOL    HW168503   7.804   7.222  11.517  0.3160  0.5454 -1.0740
22354SOL    HW268504   7.896   7.221  11.637 -1.2435  0.3020  0.1578
22355SOL     OW68505   7.111   5.605  10.666  0.0435 -0.7050 -0.0082
22355SOL    HW168506   7.038   5.627  10.608  0.3448 -2.3729 -1.0656
22355SOL    HW268507   7.185   5.655  10.632 -0.3279  0.1352  0.3951
22356SOL     OW68508   3.748   2.659   3.271  0.1915 -0.3868  0.1016
22356SOL    HW168509   3.803   2.675   3.347  1.2072 -0.6817 -0.5447
22356SOL    HW268510   3.750   2.741   3.221  0.5236 -0.5812 -0.2111
22357SOL     OW68511   6.421   3.282   3.038 -0.3526 -0.2074 -0.0458
22357SOL    HW168512   6.511   3.297   3.010 -0.3288 -0.9833 -0.4260
22357SOL    HW268513   6.421   3.298   3.132 -0.1770  1.3571 -0.2926
22358SOL     OW68514   2.031   4.770  11.420 -0.3421  0.8327  0.8502
22358SOL    HW168515   2.096   4.733  11.479  0.6457  2.1292  0.6198
22358SOL    HW268516   2.081   4.802  11.346 -1.4606  0.1605 -0.2356
22359SOL     OW68517   6.583   5.996  12.373 -0.0835  0.4923  0.2621
22359SOL    HW168518   6.522   5.924  12.355 -0.7160  0.9754  0.4509
22359SOL    HW268519   6.650   5.957  12.429 -0.1416 -0.0797 -0.0620
22360SOL     OW68520   7.159   1.109  10.950  0.0302  0.2165 -0.1378
22360SOL    HW168521   7.131   1.053  11.023 -1.9900 -0.3057 -1.2315
22360SOL    HW268522   7.124   1.195  10.971 -0.6112  0.0506 -0.4844
22361SOL     OW68523   2.261   7.007   4.433  0.3962  0.6923  0.2742
22361SOL    HW168524   2.297   6.949   4.366  1.0967  0.4886  0.8133
22361SOL    HW268525   2.308   6.984   4.513 -1.8821 -0.5482  1.3546
22362SOL     OW68526   5.556   2.160  12.316 -0.5652  0.0256  0.1441
22362SOL    HW168527   5.631   2.109  12.286  1.2182  1.1059  2.4251
22362SOL    HW268528   5.504   2.099  12.367 -0.2342 -0.2919  0.1033
22363SOL     OW68529   7.424   2.969   4.182 -0.0942 -0.2207 -0.2054
22363SOL    HW168530   7.486   3.023   4.134 -0.9587 -1.2091 -2.6031
22363SOL    HW268531   7.345   2.970   4.128 -1.5650 -0.4769  1.8215
22364SOL     OW68532   0.868   7.643   9.558 -0.7585 -0.6757 -0.0304
22364SOL    HW168533   0.888   7.616   9.647 -0.5511 -1.4042 -0.2919
22364SOL    HW268534   0.933   7.710   9.537  0.3552 -1.7983 -0.2701
22365SOL     OW68535   4.309   7.900   4.542 -0.0030 -0.5059 -0.1754
22365SOL    HW168536   4.354   7.866   4.619 -0.8803  0.6769  0.8995
22365SOL    HW268537   4.218   7.872   4.554 -0.7390  2.0482  0.7139
22366SOL     OW68538   6.584   6.700   3.698  0.1632  0.2465 -0.2445
22366SOL    HW168539   6.550   6.751   3.625  0.1230 -0.5562 -0.8074
22366SOL    HW268540   6.556   6.610   3.679  0.1725  0.0195  0.7465
22367SOL     OW68541   1.966   7.894   1.394  0.3048 -0.0999  0.0296
22367SOL    HW168542   2.022   7.835   1.444  0.9169 -1.0171 -1.6681
22367SOL    HW268543   2.025   7.934   1.330 -0.8268 -0.6267 -1.4024
22368SOL     OW68544   2.135   4.825   5.836  0.0152  0.1898  0.1724
22368SOL    HW168545   2.120   4.858   5.747 -1.2951 -1.2241 -0.1682
22368SOL    HW268546   2.133   4.904   5.891 -1.3133  0.8843 -0.8145
22369SOL     OW68547   6.964   7.607   5.650 -0.1516 -0.0356 -0.2845
22369SOL    HW168548   6.939   7.699   5.637  0.2527  0.1921  0.5009
22369SOL    HW268549   7.056   7.611   5.676 -0.6590 -0.5030  1.7729
22370SOL     OW68550   6.389   4.944   9.454  0.0860  0.0610  0.4276
22370SOL    HW168551   6.469   4.904   9.489  1.1174  2.2078  0.6850
22370SOL    HW268552   6.321   4.917   9.516  0.7345 -1.1144  0.6768
22371SOL     OW68553   6.188   3.240  11.417 -0.3795 -0.2278  0.2767
22371SOL    HW168554   6.257   3.293  11.377  0.5120 -1.3999  0.2265
22371SOL    HW268555   6.228   3.154  11.430 -2.2377 -1.3631 -1.0332
22372SOL     OW68556   0.599   6.881   5.948 -0.1726 -0.2828 -0.3724
22372SOL    HW168557   0.635   6.970   5.942 -1.4523  0.2964  0.1159
22372SOL    HW268558   0.512   6.893   5.988  1.2998 -2.1334  4.0015
22373SOL     OW68559   1.995   0.566   6.058 -0.1692  0.4315 -0.0214
22373SOL    HW168560   2.013   0.590   5.967  0.1040  1.3418  0.2593
22373SOL    HW268561   1.912   0.518   6.055 -0.3402  0.7592 -0.7073
22374SOL     OW68562   4.591   7.057   7.547  0.3899 -0.2799  0.1735
22374SOL    HW168563   4.603   7.085   7.637  0.1118 -0.2626  0.2071
22374SOL    HW268564   4.509   7.099   7.520  0.2684 -0.6046  0.0399
22375SOL     OW68565   7.252   0.923   2.291  0.3974  0.5419  0.1650
22375SOL    HW168566   7.205   0.954   2.368 -0.8877  1.2598 -0.8612
22375SOL    HW268567   7.252   0.998   2.231 -1.0945 -0.7975 -1.6362
22376SOL     OW68568   6.827   6.387   5.120  0.6235  0.2392  0.1472
22376SOL    HW168569   6.793   6.408   5.207 -1.9151 -0.1542 -0.6602
22376SOL    HW268570   6.877   6.464   5.094  1.3152  0.4076  1.8888
22377SOL     OW68571   0.953   7.851   7.934 -0.2871  0.7209 -0.0510
22377SOL    HW168572   0.918   7.762   7.947 -2.3831  1.4677 -0.2449
22377SOL    HW268573   0.938   7.895   8.017  1.0339  0.8410  0.1466
22378SOL     OW68574   7.047   2.636   6.095  0.3502 -0.0648  0.0926
22378SOL    HW168575   7.080   2.657   6.008 -0.9535 -0.9643 -0.6533
22378SOL    HW268576   6.951   2.638   6.086  0.1760 -1.5201  1.1294
22379SOL     OW68577   6.205   7.796   9.239  0.2985 -0.4877  0.3295
22379SOL    HW168578   6.179   7.748   9.160 -0.1196 -0.4917  0.4715
22379SOL    HW268579   6.212   7.728   9.306 -1.5492 -0.1916  0.8500
22380SOL     OW68580   4.310   5.977   6.780  0.2289 -0.0382 -0.1650
22380SOL    HW168581   4.276   5.915   6.715  2.5413 -3.0504  1.2016
22380SOL    HW268582   4.245   5.977   6.850 -0.0993 -0.4439 -0.4664
22381SOL     OW68583   1.865   0.515   6.662 -0.1326 -0.1009 -0.1219
22381SOL    HW168584   1.890   0.483   6.749 -1.8472 -0.5809  0.2360
22381SOL    HW268585   1.799   0.453   6.632 -2.8881  2.4981  0.1755
22382SOL     OW68586   7.952   0.124   2.640  0.4663 -0.4497 -0.5895
22382SOL    HW168587   7.973   0.149   2.550  0.1175 -0.3961 -0.6585
22382SOL    HW268588   7.937   0.207   2.685  0.3010 -0.4918 -0.5676
22383SOL     OW68589   2.574   0.178  11.441  0.4424 -0.0559  0.2511
22383SOL    HW168590   2.607   0.213  11.358 -0.1104 -2.6424 -1.1920
22383SOL    HW268591   2.614   0.091  11.447 -5.0557 -3.1314 -1.2244
22384SOL     OW68592   5.094   6.397   9.164  0.3298  0.1197 -0.1767
22384SOL    HW168593   5.018   6.354   9.126  0.9511 -0.3563 -0.9265
22384SOL    HW268594   5.166   6.337   9.148  0.7779  0.3191  1.0028
22385SOL     OW68595   5.862   1.756   8.635 -0.1016  0.6841 -0.3122
22385SOL    HW168596   5.831   1.710   8.557  1.0566 -0.0339 -0.3744
22385SOL    HW268597   5.889   1.842   8.604  0.1078  0.4945 -0.6568
22386SOL     OW68598   2.869   4.796   5.919 -0.5247  0.0584 -0.6745
22386SOL    HW168599   2.849   4.703   5.905 -1.5801  0.2650 -0.5646
22386SOL    HW268600   2.876   4.805   6.014  0.3860 -0.0601 -0.7184
22387SOL     OW68601   6.849   0.443   2.179 -0.3511 -0.2516  0.1975
22387SOL    HW168602   6.874   0.360   2.219  1.0452 -0.1712 -0.4300
22387SOL    HW268603   6.914   0.506   2.213  0.2128  0.0328 -1.3166
22388SOL     OW68604   0.981   6.288   8.940 -0.0225 -0.0169 -0.4110
22388SOL    HW168605   1.072   6.309   8.961  0.4896 -1.8844 -0.6007
22388SOL    HW268606   0.987   6.221   8.872 -1.5390 -0.4425 -0.1540
22389SOL     OW68607   7.060   0.359   8.021  0.4121 -0.0794 -0.5864
22389SOL    HW168608   7.031   0.329   8.107  2.2678  0.5207  0.2901
22389SOL    HW268609   7.132   0.300   7.998  0.3828  0.2028 -1.4280
22390SOL     OW68610   0.152   7.246   0.922 -0.1083  0.1598 -0.1724
22390SOL    HW168611   0.234   7.199   0.908 -0.7263 -1.4136  1.1424
22390SOL    HW268612   0.148   7.311   0.851  2.7999  1.0758  0.4054
22391SOL     OW68613   2.278   5.911   0.203  0.8459 -0.1659 -0.1184
22391SOL    HW168614   2.306   5.900   0.294 -0.8094 -1.5442  0.2924
22391SOL    HW268615   2.193   5.955   0.209  1.1299  0.5293 -1.0567
22392SOL     OW68616   1.334   7.590   3.605  0.2259 -0.2579 -0.5995
22392SOL    HW168617   1.370   7.508   3.572  1.9412 -0.1458  0.8506
22392SOL    HW268618   1.358   7.591   3.698 -2.0708  0.6766  0.0331
22393SOL     OW68619   5.705   7.800   4.691  0.0272  0.1469 -0.6328
22393SOL    HW168620   5.667   7.887   4.677  1.8820  1.2977  0.8612
22393SOL    HW268621   5.770   7.791   4.622 -1.2072 -0.7463 -1.7049
22394SOL     OW68622   5.054   4.367   5.728  0.2768  0.4481  0.5027
22394SOL    HW168623   5.004   4.401   5.654 -0.4463 -1.4589  0.0505
22394SOL    HW268624   5.131   4.424   5.734  1.0525 -0.0965 -2.5656
22395SOL     OW68625   4.632   1.498   5.502 -0.3437  0.1123  0.0078
22395SOL    HW168626   4.609   1.590   5.516  0.8511  0.2957  0.9561
22395SOL    HW268627   4.718   1.489   5.543  0.1285 -1.1265 -1.1845
22396SOL     OW68628   3.346   2.189   4.586 -0.3347 -0.1811 -0.5998
22396SOL    HW168629   3.424   2.134   4.579 -0.4145 -0.2264 -1.2096
22396SOL    HW268630   3.329   2.219   4.496  0.0124  1.2636 -0.2200
22397SOL     OW68631   3.154   2.544   4.816  0.4620 -0.1175 -0.1529
22397SOL    HW168632   3.167   2.638   4.825  1.3076 -0.2897  0.5270
22397SOL    HW268633   3.241   2.509   4.797  0.0090 -0.6703 -1.2999
22398SOL     OW68634   1.772   0.991   1.315 -0.4456 -0.1253 -0.3269
22398SOL    HW168635   1.748   0.953   1.230  1.0026  1.1036 -1.3391
22398SOL    HW268636   1.852   0.944   1.340 -0.0630  0.5069 -0.3560
22399SOL     OW68637   6.171   4.399   1.351 -0.0984  0.0286 -0.0145
22399SOL    HW168638   6.190   4.457   1.277 -0.1253  0.4680  0.3178
22399SOL    HW268639   6.176   4.456   1.427 -2.2880  0.0768  0.1452
22400SOL     OW68640   5.796   4.253   5.225 -0.7313 -0.6491  0.4248
22400SOL    HW168641   5.703   4.256   5.246 -0.7200 -1.0249  0.5430
22400SOL    HW268642   5.835   4.201   5.296 -0.6812 -1.8738 -0.4657
22401SOL     OW68643   3.885   2.249   5.125 -0.7325 -0.1203  0.3604
22401SOL    HW168644   3.808   2.213   5.081  1.1340 -1.3323 -2.1718
22401SOL    HW268645   3.852   2.324   5.175 -3.3779  0.0688 -1.4793
22402SOL     OW68646   0.545   4.845  11.892 -0.1014 -0.4426 -0.1169
22402SOL    HW168647   0.569   4.921  11.944  2.0504 -1.3030  0.2939
22402SOL    HW268648   0.463   4.868  11.850 -0.5721  1.2767  1.6263
22403SOL     OW68649   2.475   3.466   3.150 -0.0637  0.0398 -0.3644
22403SOL    HW168650   2.402   3.425   3.104 -1.3795  0.3914  1.3392
22403SOL    HW268651   2.516   3.394   3.198 -0.6843  0.2105  0.4428
22404SOL     OW68652   0.128   3.401  11.131 -0.2381  0.0363  0.4949
22404SOL    HW168653   0.142   3.347  11.209  2.2457  1.0307  0.8258
22404SOL    HW268654   0.114   3.489  11.164  0.7519  0.4560 -0.1541
22405SOL     OW68655   5.977   7.224  10.213 -0.8913 -0.2425  0.4214
22405SOL    HW168656   5.917   7.200  10.283 -0.4909 -1.9564  0.2413
22405SOL    HW268657   6.018   7.141  10.188  1.0299  0.7637  0.0567
22406SOL     OW68658   7.763   3.458   5.265  0.0103 -0.1824 -0.3057
22406SOL    HW168659   7.725   3.535   5.308  1.4058  0.4304 -0.1081
22406SOL    HW268660   7.689   3.415   5.223 -1.0844  0.2896  1.0671
22407SOL     OW68661   1.145   4.950   5.703  0.3622  0.2523  0.1782
22407SOL    HW168662   1.088   4.880   5.670  0.3291  0.5682 -0.4681
22407SOL    HW268663   1.217   4.905   5.745 -1.0746 -0.1748  2.3428
22408SOL     OW68664   1.259   6.015  10.911  0.7581  0.2976  0.0311
22408SOL    HW168665   1.312   6.079  10.958  1.8021 -0.7346  0.3061
22408SOL    HW268666   1.313   5.989  10.836 -0.6115  1.4317 -1.4323
22409SOL     OW68667   5.806   7.005  12.087  0.3240 -0.0823 -0.4799
22409SOL    HW168668   5.796   7.025  12.180 -1.2204  0.2994 -0.6999
22409SOL    HW268669   5.838   7.086  12.047 -1.8421  0.7350 -0.7035
22410SOL     OW68670   4.286   1.322   1.969 -0.5389  0.9859 -0.1091
22410SOL    HW168671   4.274   1.260   1.897 -0.5043  0.2486  0.5113
22410SOL    HW268672   4.230   1.288   2.039 -0.8376  1.8854  0.0999
22411SOL     OW68673   0.665   1.354   1.673  0.4403  0.1792 -0.4992
22411SOL    HW168674   0.729   1.401   1.620  1.5304 -1.5793 -0.8170
22411SOL    HW268675   0.700   1.265   1.681 -0.7403 -0.1899  1.4118
22412SOL     OW68676   5.878   0.660  10.897 -0.0271 -0.0201  0.1567
22412SOL    HW168677   5.905   0.569  10.882 -0.7056  0.1623 -2.7445
22412SOL    HW268678   5.839   0.660  10.984 -0.7250 -2.6897 -0.0865
22413SOL     OW68679   1.030   4.304   8.622  0.3393  0.4038  0.2696
22413SOL    HW168680   1.108   4.309   8.677  0.2299 -1.8264  0.7476
22413SOL    HW268681   0.965   4.356   8.667  0.4662 -0.8100  1.9366
22414SOL     OW68682   1.505   5.327   0.006 -0.1536 -0.2845  0.5117
22414SOL    HW168683   1.532   5.351  -0.083  0.3849 -0.7689  0.5393
22414SOL    HW268684   1.426   5.275  -0.006 -0.3105 -0.0089  0.3431
22415SOL     OW68685   1.765   2.102   1.225  0.3559 -0.2890 -0.0299
22415SOL    HW168686   1.717   2.073   1.302 -0.8968  0.2518 -0.5835
22415SOL    HW268687   1.703   2.094   1.153  0.5862  1.8324 -0.5292
22416SOL     OW68688   3.061   2.786   1.533  0.0141  0.3837 -0.1496
22416SOL    HW168689   3.013   2.706   1.512 -1.1281  0.8334  0.6323
22416SOL    HW268690   3.035   2.848   1.466 -0.3745  0.5664  0.1604
22417SOL     OW68691   7.215   4.515  10.438  0.0262  0.4752 -0.0104
22417SOL    HW168692   7.212   4.590  10.379 -0.1087  0.1270 -0.4515
22417SOL    HW268693   7.124   4.499  10.461 -0.0084  0.0837 -0.3913
22418SOL     OW68694   1.325   3.615   9.298  0.3656 -0.2216 -0.3078
22418SOL    HW168695   1.254   3.556   9.323  0.2116  0.5083  1.0165
22418SOL    HW268696   1.295   3.654   9.215 -0.5973 -0.2214  0.0306
22419SOL     OW68697   0.593   7.365   1.132 -0.9877  0.0524 -0.3960
22419SOL    HW168698   0.580   7.288   1.077 -1.1392  0.0370 -0.3391
22419SOL    HW268699   0.507   7.383   1.170 -1.0147  0.4081 -0.6153
22420SOL     OW68700   3.191   2.621   7.002 -0.4004  0.0547  0.7006
22420SOL    HW168701   3.231   2.708   7.002 -0.3982  0.0555  1.0895
22420SOL    HW268702   3.098   2.637   7.021 -0.7037  0.0988 -0.7063
22421SOL     OW68703   3.469   5.085   3.411 -0.2582  0.4001  0.1390
22421SOL    HW168704   3.563   5.068   3.419 -0.0702  0.8248 -0.9858
22421SOL    HW268705   3.441   5.112   3.499  0.6194  0.0618  0.5301
22422SOL     OW68706   6.147   7.848   8.776 -0.6657 -0.1557 -0.4224
22422SOL    HW168707   6.146   7.779   8.842  0.7676  0.3657  0.1847
22422SOL    HW268708   6.091   7.917   8.813  2.6612  1.5621  1.9751
22423SOL     OW68709   3.296   0.911   4.318  0.3152  0.5905  0.0486
22423SOL    HW168710   3.225   0.907   4.255  1.7030  0.3453 -1.5607
22423SOL    HW268711   3.292   0.827   4.365 -0.4049  0.5590 -0.0655
22424SOL     OW68712   0.353   1.155  11.396  0.5211 -0.0686 -0.3170
22424SOL    HW168713   0.324   1.244  11.414  0.1512 -0.2488 -0.0086
22424SOL    HW268714   0.380   1.156  11.304 -0.5209  0.0907 -0.6304
22425SOL     OW68715   5.278   1.613  11.270  0.2777  0.3493  0.3132
22425SOL    HW168716   5.327   1.630  11.190  2.6780  0.5377  1.7175
22425SOL    HW268717   5.208   1.554  11.243  2.6247 -1.8386 -1.5091
22426SOL     OW68718   1.229   6.912   4.791  0.0854  0.4426 -0.6590
22426SOL    HW168719   1.205   6.973   4.721 -1.4242 -0.1104 -0.6535
22426SOL    HW268720   1.274   6.840   4.746 -0.1300  0.4933 -0.9572
22427SOL     OW68721   5.478   4.451   9.793  0.7397 -0.0756 -0.6362
22427SOL    HW168722   5.409   4.450   9.727  0.7974  0.4622 -0.7090
22427SOL    HW268723   5.444   4.508   9.862 -0.0633 -1.9527  0.6199
22428SOL     OW68724   3.039   3.858   1.939 -0.0371  0.0094 -0.2219
22428SOL    HW168725   3.104   3.850   1.869  0.1938  1.7280 -0.2464
22428SOL    HW268726   3.090   3.877   2.018 -0.4377  0.4037 -0.0513
22429SOL     OW68727   3.317   0.642   7.818  0.0945  0.4352 -0.3791
22429SOL    HW168728   3.367   0.565   7.792  0.0462 -0.0671  0.9556
22429SOL    HW268729   3.374   0.687   7.881 -1.0906 -0.1477  1.1693
22430SOL     OW68730   3.038   1.282  11.573 -0.5709 -0.2105 -0.2434
22430SOL    HW168731   3.117   1.227  11.565 -0.2536  0.0932  0.7638
22430SOL    HW268732   2.966   1.219  11.578 -0.4494 -0.4902 -1.4588
22431SOL     OW68733   5.180   4.035   3.340 -0.0398  0.3197  0.3400
22431SOL    HW168734   5.109   4.037   3.275  0.4691  0.4339 -0.2220
22431SOL    HW268735   5.162   4.110   3.397 -0.1750  0.5595 -0.0123
22432SOL     OW68736   6.301   2.430   2.009  0.3299 -1.0475 -0.3273
22432SOL    HW168737   6.241   2.407   1.939  0.5152 -0.9584 -0.5157
22432SOL    HW268738   6.319   2.523   1.997  1.8966 -1.4397 -1.3498
22433SOL     OW68739   2.619   2.726   8.979 -0.0051 -0.7349  0.3994
22433SOL    HW168740   2.688   2.733   9.044 -1.4679  0.6922  1.9044
22433SOL    HW268741   2.538   2.722   9.030 -1.0958 -1.7953 -1.2990
22434SOL     OW68742   1.997   6.949   4.358  0.0320  0.3110 -0.4903
22434SOL    HW168743   2.007   6.978   4.267  1.1331  1.8983  0.0906
22434SOL    HW268744   2.082   6.968   4.398 -1.0090  1.3357  1.3249
22435SOL     OW68745   0.548   0.124   7.162 -0.2786 -0.3607 -0.3244
22435SOL    HW168746   0.546   0.214   7.128 -1.5394 -1.0249 -2.1702
22435SOL    HW268747   0.611   0.127   7.234 -0.8411  2.1627  0.1448
22436SOL     OW68748   2.669   6.500   0.196 -0.2808 -0.2083  0.5287
22436SOL    HW168749   2.761   6.487   0.219 -0.2585 -0.1222  0.4874
22436SOL    HW268750   2.659   6.456   0.112 -0.6035 -1.4040  1.1766
22437SOL     OW68751   3.907   5.581   4.503  0.2994  0.1636 -0.4205
22437SOL    HW168752   3.833   5.523   4.488  0.6728 -0.4921  0.1846
22437SOL    HW268753   3.975   5.550   4.443  0.7768 -0.5703  0.4651
22438SOL     OW68754   2.412   0.048  11.955 -0.2773  0.2402 -0.3476
22438SOL    HW168755   2.370  -0.031  11.920 -0.2981  1.2982 -2.9291
22438SOL    HW268756   2.344   0.090  12.007  0.1192 -2.0062  2.1768
22439SOL     OW68757   4.224   5.671   9.008 -0.5354 -0.0981 -0.4164
22439SOL    HW168758   4.222   5.722   8.927  1.2001  0.6063 -0.0593
22439SOL    HW268759   4.289   5.603   8.991  0.5283  0.6146  0.6647
22440SOL     OW68760   4.654   5.576   5.354  0.4085  0.4542  1.0279
22440SOL    HW168761   4.624   5.486   5.365 -0.0498  0.6348  1.2990
22440SOL    HW268762   4.683   5.581   5.263 -0.6575  0.3448  0.6693
22441SOL     OW68763   1.021   0.972   7.398 -0.3071  0.1188 -0.0868
22441SOL    HW168764   1.032   0.877   7.397 -1.5974 -0.0473  0.4869
22441SOL    HW268765   1.026   0.996   7.491  2.0470  0.9019 -0.3329
22442SOL     OW68766   3.455   4.507   4.163  0.0987  0.2643  0.2494
22442SOL    HW168767   3.385   4.555   4.207  0.8501 -0.8028  2.7819
22442SOL    HW268768   3.411   4.463   4.090 -1.2750  1.8769  0.0291
22443SOL     OW68769   6.683   5.849   8.702 -0.4931 -0.4874  0.2834
22443SOL    HW168770   6.709   5.758   8.688 -1.0161 -0.3000 -2.4983
22443SOL    HW268771   6.703   5.866   8.794  2.3913 -2.5024  0.1637
22444SOL     OW68772   2.641   7.944  10.647  0.0854  0.1779 -0.3545
22444SOL    HW168773   2.577   7.986  10.590 -0.9746 -1.0254 -0.1020
22444SOL    HW268774   2.600   7.944  10.733  1.3919  1.3827  0.3103
22445SOL     OW68775   6.182   1.782  10.022  0.5523 -0.0016  0.2989
22445SOL    HW168776   6.244   1.775  10.094  3.3445 -0.7814 -1.9927
22445SOL    HW268777   6.219   1.848   9.964  0.4475 -1.9581 -2.1718
22446SOL     OW68778   5.315   1.961  12.428  0.6385  0.0931 -0.5065
22446SOL    HW168779   5.323   1.884  12.483  0.2224  0.5348  0.1913
22446SOL    HW268780   5.316   1.927  12.339 -0.3233 -0.8065 -0.2046
22447SOL     OW68781   4.134   2.778   5.977 -0.4114 -0.2529  0.7673
22447SOL    HW168782   4.077   2.713   5.934 -1.3912  0.6877  0.5914
22447SOL    HW268783   4.090   2.797   6.060 -0.8922  1.1914  0.2075
22448SOL     OW68784   4.025   6.858   7.061  0.0465  0.2696 -0.1183
22448SOL    HW168785   4.104   6.859   7.007 -0.0045  1.9821 -0.1987
22448SOL    HW268786   4.054   6.890   7.147 -0.3826  0.0555  0.1083
22449SOL     OW68787   0.562   2.627   7.189 -0.4360 -0.1618 -0.3971
22449SOL    HW168788   0.560   2.552   7.129  0.0223 -0.6849  0.2398
22449SOL    HW268789   0.501   2.690   7.149  0.2245 -0.2957 -1.6728
22450SOL     OW68790   1.890   1.609   3.588 -0.1715 -0.6637 -0.2289
22450SOL    HW168791   1.884   1.652   3.503 -1.6159 -1.0730 -0.3651
22450SOL    HW268792   1.926   1.675   3.647 -0.8706  0.2162 -0.7720
22451SOL     OW68793   6.306   0.973   7.150 -0.4112  0.1509  0.3205
22451SOL    HW168794   6.325   0.970   7.243  0.0841  0.2945  0.2303
22451SOL    HW268795   6.367   0.910   7.111  0.3477  1.0742 -0.0482
22452SOL     OW68796   1.996   3.544   3.984 -0.3157  0.4858  0.2400
22452SOL    HW168797   2.061   3.600   4.025 -0.0309 -0.5210  1.2127
22452SOL    HW268798   2.000   3.462   4.033 -0.9243 -0.2941 -0.9490
22453SOL     OW68799   2.430   1.730   5.443  0.8766 -0.3719  0.4385
22453SOL    HW168800   2.507   1.749   5.390  0.9631  0.7467  0.9345
22453SOL    HW268801   2.410   1.813   5.487  0.2882 -1.0402  1.4750
22454SOL     OW68802   3.143   2.199  11.891  0.0986  0.2091  0.2931
22454SOL    HW168803   3.098   2.273  11.931 -0.8699  0.1453 -0.6232
22454SOL    HW268804   3.144   2.132  11.958  3.4117  1.8654  2.1563
22455SOL     OW68805   2.395   1.634   2.174  0.5358  0.1075 -0.1849
22455SOL    HW168806   2.350   1.614   2.092  0.1213 -2.6990  0.6258
22455SOL    HW268807   2.487   1.643   2.149  0.4417 -0.8892 -0.9510
22456SOL     OW68808   7.172   6.135   6.618 -0.1226  0.4358  0.0939
22456SOL    HW168809   7.262   6.128   6.588  0.2657  1.1632  1.0332
22456SOL    HW268810   7.147   6.046   6.643  0.2054  0.1721 -0.5136
22457SOL     OW68811   7.444   7.056  10.113 -0.0741 -0.2764  0.6345
22457SOL    HW168812   7.387   7.064  10.036  0.0182 -0.7412  0.5143
22457SOL    HW268813   7.533   7.063  10.078 -0.0287 -0.6046  0.6787
22458SOL     OW68814   5.512   3.872   0.158  0.2364  0.6141  0.0260
22458SOL    HW168815   5.460   3.944   0.194 -0.2460 -0.0688  0.7203
22458SOL    HW268816   5.603   3.898   0.171  0.1243 -0.2024  3.0254
22459SOL     OW68817   3.649   4.531   0.870  0.1016  0.5616 -0.2454
22459SOL    HW168818   3.696   4.474   0.809 -0.0637 -0.5116  0.6047
22459SOL    HW268819   3.623   4.607   0.817  0.6265  0.0182 -1.3117
22460SOL     OW68820   4.010   4.114   7.106  0.5658  0.2740 -0.2033
22460SOL    HW168821   3.965   4.187   7.063 -1.0371  0.0491  0.9971
22460SOL    HW268822   4.083   4.155   7.154  2.1604  0.5662 -2.7010
22461SOL     OW68823   0.636   1.350   4.599 -0.1263  0.3101  0.0901
22461SOL    HW168824   0.725   1.377   4.576  0.7459 -2.2512  0.1582
22461SOL    HW268825   0.583   1.375   4.524  0.7275  1.4063 -0.1770
22462SOL     OW68826   6.734   2.265  11.512  0.0998  0.0623  0.5984
22462SOL    HW168827   6.750   2.186  11.563  2.1115  0.8718  1.3297
22462SOL    HW268828   6.650   2.298  11.545 -0.3016 -1.2382  0.9385
22463SOL     OW68829   5.767   5.324   5.670 -0.2197  0.8995  0.1872
22463SOL    HW168830   5.759   5.244   5.722 -0.7647  0.1075 -1.0928
22463SOL    HW268831   5.861   5.342   5.668  0.0521 -0.5382 -0.7383
22464SOL     OW68832   1.258   1.916   1.841  0.3612  0.3578  0.1021
22464SOL    HW168833   1.179   1.970   1.839  0.4347  0.5393  1.2827
22464SOL    HW268834   1.236   1.842   1.897  0.0442 -1.2551 -2.0445
22465SOL     OW68835   7.939   0.186   4.339 -0.1406  0.3355 -0.0659
22465SOL    HW168836   7.967   0.245   4.409 -0.8506  0.5821  0.0212
22465SOL    HW268837   7.849   0.213   4.320 -0.4399 -0.6518 -0.1049
22466SOL     OW68838   6.174   3.455  11.841 -0.3778  0.3366 -0.1846
22466SOL    HW168839   6.078   3.447  11.843 -0.3028 -0.5298  0.2090
22466SOL    HW268840   6.196   3.506  11.919 -0.5682  1.2206 -0.6910
22467SOL     OW68841   5.081   2.275   3.474  0.5023  0.1840  0.6641
22467SOL    HW168842   4.997   2.280   3.429  1.4244  0.2563 -1.1523
22467SOL    HW268843   5.059   2.257   3.565 -1.4572  0.0256  0.1948
22468SOL     OW68844   5.257   0.581   7.959  0.1986  0.4534 -0.1114
22468SOL    HW168845   5.292   0.500   7.995 -0.1929 -0.4992 -1.7728
22468SOL    HW268846   5.175   0.555   7.917  0.5238  1.5284 -1.4663
22469SOL     OW68847   7.740   7.011   9.130  0.2937  0.4775 -0.4251
22469SOL    HW168848   7.819   7.000   9.183 -0.0698  1.3450  0.3241
22469SOL    HW268849   7.678   6.947   9.167  0.0117  1.1424  0.2708
22470SOL     OW68850   3.567   3.684  11.973  0.0890  0.2839  0.6190
22470SOL    HW168851   3.661   3.673  11.956  0.3803  1.6469  1.2235
22470SOL    HW268852   3.525   3.625  11.910  1.2759  1.2409 -1.1893
22471SOL     OW68853   0.777   0.227   9.118 -0.5633  0.0495  0.4845
22471SOL    HW168854   0.828   0.274   9.183  0.8608 -0.4571 -0.2312
22471SOL    HW268855   0.758   0.142   9.159 -2.3384  0.8336  1.4088
22472SOL     OW68856   4.060   4.322   3.685  0.6011 -0.0939  0.1783
22472SOL    HW168857   4.037   4.404   3.640 -0.5489 -0.5923 -0.1609
22472SOL    HW268858   4.145   4.341   3.725  1.1768  0.7196 -1.3236
22473SOL     OW68859   1.309   7.141   7.183 -0.4856  0.5416  0.2971
22473SOL    HW168860   1.248   7.126   7.256 -4.6393 -0.2975 -2.9120
22473SOL    HW268861   1.340   7.053   7.160  0.4384  0.7468  0.7366
22474SOL     OW68862   3.904   4.228   3.889 -0.0483  0.1154  0.1819
22474SOL    HW168863   3.823   4.193   3.850  0.6147 -0.4356 -0.7379
22474SOL    HW268864   3.954   4.260   3.815  0.2578  1.1629  0.8291
22475SOL     OW68865   6.348   1.959   5.208  0.2342  0.3422 -0.2761
22475SOL    HW168866   6.324   1.897   5.278  0.8553  0.9758  0.5170
22475SOL    HW268867   6.271   2.016   5.200  0.6768  1.1218  0.8616
22476SOL     OW68868   1.604   0.043   8.276 -0.5427  0.0529 -0.0040
22476SOL    HW168869   1.608   0.060   8.182  3.2098  1.3362  0.2230
22476SOL    HW268870   1.690   0.009   8.298 -1.6627 -1.2754  2.8500
22477SOL     OW68871   7.648   4.376   2.821 -1.0670 -0.2086 -0.5677
22477SOL    HW168872   7.559   4.366   2.855 -0.7930  0.2063  0.2893
22477SOL    HW268873   7.697   4.416   2.893 -0.2599 -0.1441 -1.1426
22478SOL     OW68874   1.882   2.515  11.087  0.0446 -0.6591 -0.0925
22478SOL    HW168875   1.887   2.420  11.100  0.6915 -0.4397  1.5460
22478SOL    HW268876   1.810   2.543  11.142  1.4771  0.0711  1.5102
22479SOL     OW68877   5.365   3.537   2.341  0.1066  0.2021  0.7588
22479SOL    HW168878   5.428   3.544   2.413 -0.2647 -1.7595  1.3357
22479SOL    HW268879   5.417   3.509   2.266  0.0841 -0.4191  0.9722
22480SOL     OW68880   6.941   6.465   2.681  0.3422 -0.6022 -0.2077
22480SOL    HW168881   6.845   6.470   2.686  0.4186  0.0958  1.9391
22480SOL    HW268882   6.971   6.541   2.731  1.9952 -1.7108  0.5844
22481SOL     OW68883   0.774   4.956   0.871  0.2625 -0.3969  0.0853
22481SOL    HW168884   0.795   5.031   0.816 -0.0744 -0.0700  0.3913
22481SOL    HW268885   0.830   4.885   0.839 -0.9770 -0.6473 -1.6834
22482SOL     OW68886   6.571   3.119   6.846  0.3950  0.0062 -0.7287
22482SOL    HW168887   6.630   3.093   6.775  0.2442 -0.6420 -0.6253
22482SOL    HW268888   6.629   3.135   6.920  0.3626 -1.9243 -0.2492
22483SOL     OW68889   0.616   5.936   6.056  0.2449  0.2384  0.5160
22483SOL    HW168890   0.674   6.004   6.089 -0.7245  1.5294 -0.3178
22483SOL    HW268891   0.666   5.895   5.985  0.0942  1.5207 -0.3801
22484SOL     OW68892   1.875   0.734  10.517  0.4288  0.3248  0.1794
22484SOL    HW168893   1.870   0.674  10.443 -1.6922  2.4462 -1.5534
22484SOL    HW268894   1.785   0.765  10.530  0.9982  1.2322  2.6336
22485SOL     OW68895   0.482   4.872   5.764 -0.2700  0.2157  0.4033
22485SOL    HW168896   0.513   4.962   5.773 -1.7278  1.3058 -3.3625
22485SOL    HW268897   0.389   4.876   5.786 -1.1361  0.5071 -2.8656
22486SOL     OW68898   6.949   2.207   2.920 -0.2575 -0.0562  0.4752
22486SOL    HW168899   6.910   2.289   2.952  0.1001 -0.4691  2.0334
22486SOL    HW268900   6.918   2.140   2.981  1.7230 -0.6195  0.9183
22487SOL     OW68901   0.472   7.319   5.902 -0.7784  0.5036  0.4000
22487SOL    HW168902   0.471   7.335   5.807 -3.1305  0.1755  0.3307
22487SOL    HW268903   0.528   7.389   5.936 -1.3587  1.7535 -1.0631
22488SOL     OW68904   2.119   6.625  10.446  0.6130 -0.1193 -0.3967
22488SOL    HW168905   2.104   6.543  10.399  0.0230 -0.2652  0.0331
22488SOL    HW268906   2.064   6.618  10.524  1.8714 -0.0617  0.5312
22489SOL     OW68907   7.382   6.327   3.438 -0.1556  0.0701 -0.5363
22489SOL    HW168908   7.314   6.366   3.384 -0.0035 -1.0185 -1.5499
22489SOL    HW268909   7.343   6.245   3.471 -0.1625  0.5962  0.8320
22490SOL     OW68910   6.516   2.453   6.649 -0.1028  0.0175  0.3908
22490SOL    HW168911   6.486   2.538   6.615  1.1180  0.5172  0.5213
22490SOL    HW268912   6.577   2.475   6.719 -0.3089 -0.9893  0.9063
22491SOL     OW68913   2.322   3.305   9.937  0.0403  0.0208 -0.1962
22491SOL    HW168914   2.260   3.331   9.868  1.3362  2.6213 -0.4952
22491SOL    HW268915   2.389   3.253   9.891  2.3728  3.9348 -1.6783
22492SOL     OW68916   5.500   5.369   9.609  0.6946 -0.4521 -0.0370
22492SOL    HW168917   5.562   5.430   9.569  0.1862  1.0268  1.3055
22492SOL    HW268918   5.504   5.291   9.554  2.1593  0.3925 -1.2089
22493SOL     OW68919   0.158   0.694   9.870  0.5116  0.2684 -0.0698
22493SOL    HW168920   0.189   0.768   9.923 -3.1078  1.0277  1.2273
22493SOL    HW268921   0.101   0.733   9.805 -0.5954 -1.2722 -0.0694
22494SOL     OW68922   4.165   0.536   5.921 -0.2417  0.2521 -0.2238
22494SOL    HW168923   4.254   0.565   5.901  0.0487 -0.3307  0.1685
22494SOL    HW268924   4.135   0.595   5.990 -0.0459  0.2765 -0.1577
22495SOL     OW68925   2.323   0.967   3.519  0.0071  0.5461 -0.0137
22495SOL    HW168926   2.292   1.003   3.602 -1.6004 -0.0162 -0.3237
22495SOL    HW268927   2.301   0.874   3.524  1.0408  0.2487 -0.5817
22496SOL     OW68928   0.748   7.179  10.937  0.2123 -1.0612  0.0336
22496SOL    HW168929   0.670   7.126  10.952 -0.2093 -0.5318 -0.2582
22496SOL    HW268930   0.741   7.207  10.845  0.9422 -1.3286 -0.1159
22497SOL     OW68931   2.466   6.136   3.885  0.2674  0.0464  0.1312
22497SOL    HW168932   2.382   6.165   3.922  0.3527  0.7064 -0.1919
22497SOL    HW268933   2.443   6.101   3.799 -0.2936 -3.6170  1.5671
22498SOL     OW68934   0.135   1.685   7.246  0.5464 -0.1564 -0.5214
22498SOL    HW168935   0.218   1.728   7.263 -0.2568  0.7982  1.2279
22498SOL    HW268936   0.069   1.753   7.256 -0.5177 -1.0625 -1.0712
22499SOL     OW68937   4.183   2.400   7.846 -0.1893 -0.1731  0.2374
22499SOL    HW168938   4.226   2.452   7.778 -1.4636 -1.6442 -1.7922
22499SOL    HW268939   4.251   2.385   7.911  1.9048 -0.9546 -1.9997
22500SOL     OW68940   3.083   1.370   3.156  0.0830  0.4737  0.7330
22500SOL    HW168941   2.995   1.376   3.193  0.5554 -0.3836  2.0686
22500SOL    HW268942   3.072   1.316   3.078 -0.8677  1.9970 -0.2528
22501SOL     OW68943   6.905   5.564   7.479  0.2607  0.6506  0.2807
22501SOL    HW168944   6.954   5.493   7.438 -1.6492 -0.2501 -0.6164
22501SOL    HW268945   6.965   5.639   7.478  1.0904  0.0552 -2.1958
22502SOL     OW68946   2.996   3.842   5.750  0.4932 -0.1777  0.2266
22502SOL    HW168947   2.984   3.936   5.734 -1.2932 -0.4661 -0.3062
22502SOL    HW268948   2.960   3.799   5.673  3.8805 -1.3127 -0.8897
22503SOL     OW68949   6.325   1.022   7.427 -0.0412 -0.4671 -0.5234
22503SOL    HW168950   6.236   1.056   7.438 -0.4226 -1.4016 -0.6278
22503SOL    HW268951   6.371   1.052   7.506 -0.5788 -0.3835 -0.2330
22504SOL     OW68952   0.678   4.386   0.220 -0.1612 -0.3654 -0.3637
22504SOL    HW168953   0.606   4.439   0.186  1.2261  0.7184 -1.7203
22504SOL    HW268954   0.715   4.438   0.291 -1.3267 -1.4114  1.0929
22505SOL     OW68955   3.432   2.573   9.590 -0.5921  0.0974 -0.2091
22505SOL    HW168956   3.360   2.515   9.612 -1.0212  1.1651  1.3043
22505SOL    HW268957   3.501   2.514   9.559 -1.6381 -1.0357 -0.4635
22506SOL     OW68958   4.592   2.138   7.213  0.6101 -0.3623  0.1726
22506SOL    HW168959   4.525   2.072   7.197 -0.1001  0.0835  1.1638
22506SOL    HW268960   4.546   2.209   7.259  1.5317  0.4392 -0.0979
22507SOL     OW68961   2.557   2.025   7.489  0.0095  0.0459  0.1534
22507SOL    HW168962   2.569   1.993   7.400 -1.3119  0.8349 -0.3368
22507SOL    HW268963   2.463   2.023   7.503  0.1594  0.3942  1.3672
22508SOL     OW68964   1.319   6.705   4.602  0.1232  0.1067  0.0186
22508SOL    HW168965   1.373   6.627   4.588 -1.0463 -0.9381  1.0414
22508SOL    HW268966   1.356   6.771   4.543  2.0498 -0.7655  0.1870
22509SOL     OW68967   6.454   4.958   0.049  0.1778  0.1639 -0.1655
22509SOL    HW168968   6.489   4.874   0.080 -0.6367  0.0773  0.5773
22509SOL    HW268969   6.386   4.980   0.113  1.1652  1.9790  0.3120
22510SOL     OW68970   3.851   5.547  10.706 -0.2459 -0.6826  0.6510
22510SOL    HW168971   3.838   5.589  10.791 -1.6638  1.7190 -0.6546
22510SOL    HW268972   3.770   5.499  10.690 -0.6593  0.2296 -0.0424
22511SOL     OW68973   7.624   7.361  10.189 -0.0736 -0.3748 -0.1227
22511SOL    HW168974   7.631   7.339  10.096 -0.6337  0.9196 -0.4893
22511SOL    HW268975   7.571   7.441  10.192 -0.7704 -0.8414  1.3721
22512SOL     OW68976   5.317   6.320   6.036  0.1261  0.5354  0.5352
22512SOL    HW168977   5.382   6.332   6.105  0.3123  0.1313  0.4334
22512SOL    HW268978   5.308   6.225   6.028  0.6963  0.5646 -0.5476
22513SOL     OW68979   0.425   0.467   2.550  0.3272 -0.2703  0.3809
22513SOL    HW168980   0.486   0.532   2.585  1.1180 -0.2280 -0.9833
22513SOL    HW268981   0.365   0.518   2.496 -1.4334 -0.2137  2.2977
22514SOL     OW68982   5.300   3.263   1.621 -0.1718 -0.2169  0.0684
22514SOL    HW168983   5.322   3.295   1.708  0.3116 -0.7612  0.1571
22514SOL    HW268984   5.326   3.333   1.561 -0.4409  0.1284  0.3575
22515SOL     OW68985   7.307   6.409  10.964  0.1933  1.0175  0.1977
22515SOL    HW168986   7.300   6.461  11.044  0.0849  2.6509 -0.8398
22515SOL    HW268987   7.281   6.468  10.894  1.8033  0.1168 -1.2404
22516SOL     OW68988   5.198   1.023   6.249 -0.0808  0.5597 -0.0643
22516SOL    HW168989   5.244   1.085   6.193  1.9312  0.5091  1.4644
22516SOL    HW268990   5.176   0.950   6.190  2.2709  0.3526 -0.7606
22517SOL     OW68991   5.252   4.449   8.607  0.5978 -0.0505  0.3017
22517SOL    HW168992   5.263   4.472   8.515 -0.0451 -0.3216  0.1557
22517SOL    HW268993   5.171   4.398   8.610  1.3089 -1.1936  0.8174
22518SOL     OW68994   1.214   2.180   9.508  0.0941 -0.1838 -0.0244
22518SOL    HW168995   1.206   2.208   9.417 -1.6954  1.7017  0.6519
22518SOL    HW268996   1.238   2.259   9.557  0.7387 -1.0924  1.2189
22519SOL     OW68997   6.915   2.210   2.105  0.3749  0.1390  0.1533
22519SOL    HW168998   6.897   2.131   2.055 -0.3449  0.5495 -0.2580
22519SOL    HW268999   6.974   2.261   2.050 -1.4552  1.1952 -0.9367
22520SOL     OW69000   6.635   3.100  10.518  0.3227 -0.3612 -0.2528
22520SOL    HW169001   6.610   3.008  10.506  1.2840 -0.4983 -1.4037
22520SOL    HW269002   6.556   3.149  10.495 -0.1442 -0.8824  0.1902
22521SOL     OW69003   0.586   0.214  11.032 -0.1815  0.0382  0.0782
22521SOL    HW169004   0.565   0.250  11.118 -0.3713  0.6015 -0.1996
22521SOL    HW269005   0.538   0.270  10.971  1.0372  0.4871 -0.4924
22522SOL     OW69006   4.977   6.487  10.832 -0.0450 -0.1544 -0.0206
22522SOL    HW169007   5.017   6.447  10.755  1.7264  1.7465 -0.1797
22522SOL    HW269008   5.012   6.438  10.906  0.8647  0.0716 -0.2879
22523SOL     OW69009   5.774   6.868   2.231 -0.0836 -0.0406  0.5025
22523SOL    HW169010   5.825   6.794   2.265  1.3859  0.2102 -1.0211
22523SOL    HW269011   5.727   6.832   2.156  1.6688  0.8108 -1.0692
22524SOL     OW69012   2.491   3.230   8.210  0.3674  0.2876 -0.4578
22524SOL    HW169013   2.514   3.221   8.117  0.9718  2.6957 -0.5901
22524SOL    HW269014   2.440   3.311   8.214 -0.0001 -0.0006  1.2701
22525SOL     OW69015   4.803   0.697   0.432  0.7102 -0.1435 -0.0739
22525SOL    HW169016   4.744   0.734   0.367  1.2776 -1.9546 -1.7146
22525SOL    HW269017   4.753   0.696   0.513 -1.3306 -1.1290 -1.2853
22526SOL     OW69018   2.036   6.117   8.374  0.2153  0.0264  0.0870
22526SOL    HW169019   2.057   6.043   8.430  0.0891  1.1136  1.6259
22526SOL    HW269020   2.113   6.174   8.378  0.1093  0.2372 -0.6637
22527SOL     OW69021   5.951   2.413   3.410 -0.4484  0.2497 -0.2586
22527SOL    HW169022   5.932   2.360   3.333 -1.3660  0.3513 -0.1095
22527SOL    HW269023   5.985   2.351   3.475  0.1312  0.1338 -0.6613
22528SOL     OW69024   7.095   5.889   7.883 -0.0979  0.4345  0.2498
22528SOL    HW169025   7.027   5.881   7.816 -0.7745  1.5469  0.7624
22528SOL    HW269026   7.177   5.882   7.836 -0.5635  1.3694 -0.7254
22529SOL     OW69027   2.768   4.721   2.624  0.0525  0.8362  0.7039
22529SOL    HW169028   2.815   4.694   2.703 -2.4184 -0.1957  1.9330
22529SOL    HW269029   2.730   4.640   2.589 -0.8694  1.6052 -0.1633
22530SOL     OW69030   1.476   6.192   1.426  0.6675  0.3630  0.8182
22530SOL    HW169031   1.382   6.188   1.409  0.8285  0.9520 -0.3787
22530SOL    HW269032   1.486   6.259   1.494  0.1192 -0.8027  2.0920
22531SOL     OW69033   4.792   2.240   5.707  0.4280 -0.2265  0.1924
22531SOL    HW169034   4.869   2.287   5.674 -0.5707  1.4878  0.1957
22531SOL    HW269035   4.795   2.155   5.663  1.6993  0.2298 -0.6611
22532SOL     OW69036   5.240   1.199  10.042 -0.2955  0.2205  0.4260
22532SOL    HW169037   5.149   1.168  10.042 -0.1961 -0.0917 -0.0269
22532SOL    HW269038   5.235   1.287  10.003 -0.1370 -0.7284 -1.9277
22533SOL     OW69039   7.034   2.596   2.989  0.4947  0.1516  0.4488
22533SOL    HW169040   7.069   2.597   2.900 -0.3385  0.5425  0.1137
22533SOL    HW269041   7.047   2.686   3.020 -0.0845  0.2688  0.3640
22534SOL     OW69042   0.702   4.964   3.947 -0.0835 -0.5587  0.0778
22534SOL    HW169043   0.772   4.906   3.919 -0.0301 -0.6064  0.3089
22534SOL    HW269044   0.625   4.933   3.900  0.2419  0.0943 -0.9378
22535SOL     OW69045   3.382   0.195   0.339 -0.6428 -0.4788  0.1294
22535SOL    HW169046   3.400   0.192   0.245 -0.0938  0.6343  0.1882
22535SOL    HW269047   3.438   0.127   0.376 -0.6632 -0.7384 -0.3103
22536SOL     OW69048   6.987   7.556   6.806 -0.0159 -0.6059  0.1001
22536SOL    HW169049   7.064   7.498   6.808 -1.7770 -3.3724 -2.9258
22536SOL    HW269050   6.912   7.497   6.807 -1.9997  1.6372 -2.0814
22537SOL     OW69051   3.756   4.430   9.866 -0.0403  0.4656  0.2567
22537SOL    HW169052   3.848   4.437   9.891  0.0396  3.5033 -0.4603
22537SOL    HW269053   3.759   4.390   9.778  0.3402 -1.5931  1.1428
22538SOL     OW69054   2.603   0.783   6.531 -0.0224  0.3510  0.2759
22538SOL    HW169055   2.631   0.786   6.622 -2.4518  1.0741  1.0815
22538SOL    HW269056   2.658   0.849   6.487 -0.3847  1.7087  1.7446
22539SOL     OW69057   7.303   6.442   8.642 -0.2817 -0.0798  0.2999
22539SOL    HW169058   7.246   6.367   8.624 -1.3310  0.8626 -0.4430
22539SOL    HW269059   7.284   6.504   8.571  0.4446  0.9533  0.9832
22540SOL     OW69060   7.061   0.907   1.723  0.1224  0.5476 -0.6956
22540SOL    HW169061   7.029   0.912   1.813 -1.2337  1.1954 -1.1839
22540SOL    HW269062   7.062   0.813   1.703  0.5593  0.3906  0.0248
22541SOL     OW69063   7.255   6.440   4.083  0.3400  0.4844 -0.3851
22541SOL    HW169064   7.305   6.487   4.016  0.5993  1.5639  0.5279
22541SOL    HW269065   7.168   6.479   4.081  0.1777  0.1210 -0.4823
22542SOL     OW69066   4.055   4.759  10.167  0.2305  0.4695  0.5496
22542SOL    HW169067   4.147   4.777  10.188  0.4633  1.2174 -0.9953
22542SOL    HW269068   4.059   4.693  10.098 -0.3206  1.7019 -0.6905
22543SOL     OW69069   1.714   1.146   3.146  0.1508 -0.2349  0.8022
22543SOL    HW169070   1.659   1.190   3.211 -1.3872 -0.9248  0.0314
22543SOL    HW269071   1.713   1.054   3.172 -3.3792 -1.2159 -1.9334
22544SOL     OW69072   1.404   0.895  10.938 -0.2534  0.2353  0.0214
22544SOL    HW169073   1.363   0.809  10.936 -1.3630  0.7045  1.0027
22544SOL    HW269074   1.494   0.880  10.911  0.1114 -1.5683  1.9961
22545SOL     OW69075   1.011   5.291   1.037  0.1857  0.4725  0.9651
22545SOL    HW169076   0.986   5.333   1.119 -0.8625  1.2994  0.2428
22545SOL    HW269077   1.027   5.200   1.062  0.3599  0.8126  2.1718
22546SOL     OW69078   6.783   3.978   3.353  0.1801 -0.0103  0.1475
22546SOL    HW169079   6.802   3.949   3.442  1.3622  2.4109  0.7534
22546SOL    HW269080   6.687   3.989   3.352  0.0362 -1.0720  0.7572
22547SOL     OW69081   2.603   2.717   9.860  0.1524 -0.3601 -0.0609
22547SOL    HW169082   2.513   2.747   9.843  0.2122  0.3885  0.8374
22547SOL    HW269083   2.617   2.736   9.953  0.4619 -2.5692  0.3863
22548SOL     OW69084   2.542   4.643   3.433  0.1859 -0.1539 -0.0122
22548SOL    HW169085   2.569   4.615   3.345  4.4039  1.4799  0.5133
22548SOL    HW269086   2.538   4.738   3.427 -0.6358 -0.0865  1.3181
22549SOL     OW69087   0.576   6.899   4.256  0.3355  0.5096 -1.0429
22549SOL    HW169088   0.560   6.845   4.334  0.7835  0.8545 -0.7103
22549SOL    HW269089   0.491   6.900   4.211  0.3605 -0.6227 -1.1564
22550SOL     OW69090   2.084   2.374   9.655 -0.5383 -0.5142  0.1851
22550SOL    HW169091   2.139   2.299   9.674 -1.0503 -1.1018 -0.5872
22550SOL    HW269092   2.000   2.337   9.629 -0.7050  0.3023 -0.5147
22551SOL     OW69093   2.017   4.185  11.879 -0.1390 -0.7777  0.2245
22551SOL    HW169094   2.069   4.116  11.919 -0.3553 -0.3622  1.2798
22551SOL    HW269095   1.961   4.141  11.815  1.7445 -1.1776 -1.2051
22552SOL     OW69096   3.910   4.456   0.428  0.0306  0.2182 -0.1013
22552SOL    HW169097   3.896   4.364   0.403  1.3294 -0.0086 -0.0645
22552SOL    HW269098   4.004   4.468   0.423 -0.0940  1.4735  0.2242
22553SOL     OW69099   3.183   7.257  10.750 -0.0101 -0.3282 -0.1201
22553SOL    HW169100   3.127   7.298  10.684  1.3976  0.1278 -1.0647
22553SOL    HW269101   3.210   7.174  10.710 -2.5655 -2.1643  1.6361
22554SOL     OW69102   7.709   6.838   4.925  0.3522 -0.1635  0.0182
22554SOL    HW169103   7.760   6.789   4.861  0.0747  0.5950 -0.7965
22554SOL    HW269104   7.622   6.798   4.922 -0.2252  1.1071 -1.5321
22555SOL     OW69105   4.152   0.048   4.323 -0.0327  0.1495 -0.7297
22555SOL    HW169106   4.110   0.124   4.364 -0.1692 -0.0402 -0.5152
22555SOL    HW269107   4.232   0.035   4.373  0.2192  0.4321 -1.0579
22556SOL     OW69108   3.236   2.137  12.218  0.3927  0.3395 -0.0185
22556SOL    HW169109   3.323   2.098  12.209 -0.0259 -0.1161 -3.4014
22556SOL    HW269110   3.247   2.229  12.194 -0.0125  0.3137 -0.3261
22557SOL     OW69111   5.455   0.905   6.664 -0.1885 -0.5043  0.8083
22557SOL    HW169112   5.425   0.939   6.749  0.1090 -0.3651  0.8563
22557SOL    HW269113   5.480   0.983   6.614  0.3412 -0.6422  0.8619
22558SOL     OW69114   5.617   1.814   9.568  0.2614 -0.4773  0.6647
22558SOL    HW169115   5.654   1.726   9.565  0.3607 -0.5574  2.7820
22558SOL    HW269116   5.693   1.872   9.562  0.4823 -0.6079  1.8347
22559SOL     OW69117   5.109   6.295   2.374 -0.1223  0.0540 -0.1493
22559SOL    HW169118   5.076   6.318   2.287  0.7956  2.2004  0.0188
22559SOL    HW269119   5.174   6.227   2.358  0.7246  1.0881 -1.2634
22560SOL     OW69120   2.203   4.094   8.189 -0.0376 -0.3160 -0.3555
22560SOL    HW169121   2.250   4.015   8.162 -1.1097 -1.3000  0.5816
22560SOL    HW269122   2.115   4.064   8.210  0.1923  0.6807  2.4193
22561SOL     OW69123   1.647   7.404   6.292  0.1985 -0.5824 -0.0315
22561SOL    HW169124   1.726   7.453   6.268  0.7442 -0.8964  1.0117
22561SOL    HW269125   1.663   7.315   6.260  0.1171 -0.5613 -0.1291
22562SOL     OW69126   0.285   1.762  11.143 -0.4211 -0.0160  0.3630
22562SOL    HW169127   0.372   1.722  11.150 -1.3671 -2.1255  0.8340
22562SOL    HW269128   0.266   1.761  11.050 -0.5095 -0.9039  0.3812
22563SOL     OW69129   4.949   3.867   5.263  0.3704 -0.7787 -0.0060
22563SOL    HW169130   4.858   3.890   5.246  0.5571 -0.1206 -0.1362
22563SOL    HW269131   4.957   3.870   5.358  0.3500 -0.4729 -0.0141
22564SOL     OW69132   4.719   1.523   8.213 -0.1435 -0.0370  0.4029
22564SOL    HW169133   4.787   1.505   8.148 -1.0290  0.8829 -0.8145
22564SOL    HW269134   4.637   1.506   8.167 -1.0197  4.3677 -0.1177
22565SOL     OW69135   4.227   3.052   9.078  0.0183 -0.0965 -0.6358
22565SOL    HW169136   4.304   3.028   9.026 -0.7335  1.1381 -2.4054
22565SOL    HW269137   4.242   3.144   9.101 -0.7382  0.0297 -0.6447
22566SOL     OW69138   7.533   6.159   0.354 -0.2038  0.7615  0.2691
22566SOL    HW169139   7.552   6.135   0.445 -0.4111  1.3984  0.4831
22566SOL    HW269140   7.476   6.236   0.360 -1.7126 -0.2474 -0.3716
22567SOL     OW69141   4.446   1.130   2.586 -0.0056 -0.3604  0.0417
22567SOL    HW169142   4.448   1.068   2.658 -0.1609 -0.4619 -0.0390
22567SOL    HW269143   4.396   1.205   2.619 -0.7514 -0.7378 -0.2168
22568SOL     OW69144   6.201   7.001   1.615 -0.4961  0.1153 -0.2135
22568SOL    HW169145   6.258   6.925   1.621  0.6145  0.9142 -0.3068
22568SOL    HW269146   6.164   6.997   1.527  0.0188  0.0037 -0.4275
22569SOL     OW69147   4.004   4.161   9.167  0.1397 -0.4915 -0.6441
22569SOL    HW169148   4.073   4.227   9.177 -0.4045  0.2310 -1.5080
22569SOL    HW269149   3.996   4.121   9.254  0.3162  0.7602 -0.0291
22570SOL     OW69150   1.001   6.307   0.801  0.0268 -0.1241  0.1941
22570SOL    HW169151   0.949   6.387   0.795 -0.5159 -0.5605 -2.1523
22570SOL    HW269152   1.084   6.329   0.757  0.7632 -0.2309  1.4838
22571SOL     OW69153   4.787   4.502   2.172  0.2981  0.4232 -0.1139
22571SOL    HW169154   4.702   4.530   2.139  0.3639 -0.7591 -1.3587
22571SOL    HW269155   4.787   4.407   2.162  1.2293  0.2577  1.1918
22572SOL     OW69156   4.377   2.253   9.807  0.0787 -0.4181 -0.3706
22572SOL    HW169157   4.420   2.326   9.851  0.9938 -1.4561  0.5452
22572SOL    HW269158   4.331   2.207   9.878 -0.9821 -0.4045 -1.0313
22573SOL     OW69159   3.628   3.570   2.584  0.4999 -0.0474  0.4248
22573SOL    HW169160   3.672   3.558   2.668  0.6511 -0.4258  0.2971
22573SOL    HW269161   3.557   3.632   2.602  2.0753  1.8847  0.2873
22574SOL     OW69162   5.040   7.623   3.854 -0.3112 -0.0385 -0.0242
22574SOL    HW169163   4.999   7.645   3.938  0.8946 -1.1581  0.8957
22574SOL    HW269164   4.977   7.654   3.789 -0.0561  3.3514  1.1584
22575SOL     OW69165   5.869   0.757   9.776  0.1392 -0.0994  0.3889
22575SOL    HW169166   5.889   0.710   9.857  2.3076 -1.0084 -0.5743
22575SOL    HW269167   5.933   0.828   9.775 -0.1950  0.1879 -0.2799
22576SOL     OW69168   3.814   5.205   9.556 -0.2781 -0.3965 -0.2210
22576SOL    HW169169   3.908   5.198   9.542 -0.1010 -0.2867  0.8029
22576SOL    HW269170   3.778   5.232   9.472  0.6240 -0.2662 -0.5678
22577SOL     OW69171   7.549   7.875   6.386  0.6666  0.5518  0.2725
22577SOL    HW169172   7.643   7.872   6.402  0.7115  0.0683 -0.0484
22577SOL    HW269173   7.516   7.946   6.442  1.0478 -0.0250  1.2417
22578SOL     OW69174   0.396   0.706  10.939  0.3523 -0.1481  0.1828
22578SOL    HW169175   0.401   0.616  10.970  1.6890 -0.1499  0.0253
22578SOL    HW269176   0.428   0.759  11.012  0.2083  0.1392  0.0400
22579SOL     OW69177   0.866   3.064   6.634  0.3706  0.6829  0.6362
22579SOL    HW169178   0.856   2.971   6.612  0.6888  0.8603 -0.3009
22579SOL    HW269179   0.935   3.066   6.701  2.9482  0.4851 -1.8043
22580SOL     OW69180   3.107   7.947   0.451 -0.2818  0.0877 -0.1250
22580SOL    HW169181   3.063   8.006   0.512  0.3726  0.4079  0.0469
22580SOL    HW269182   3.196   7.981   0.445  0.5437 -1.7270  1.0767
22581SOL     OW69183   2.755   1.184   9.483  0.3773  0.1973  0.4246
22581SOL    HW169184   2.740   1.091   9.465 -0.1366  0.4341 -0.4068
22581SOL    HW269185   2.684   1.208   9.542 -0.5682  0.4910 -0.8033
22582SOL     OW69186   5.191   5.743   5.115  0.0784  0.5054 -0.1294
22582SOL    HW169187   5.125   5.678   5.140  1.2557 -1.5323 -1.8809
22582SOL    HW269188   5.259   5.735   5.182 -0.6774  1.4474  0.7810
22583SOL     OW69189   6.575   7.380   0.291 -0.3289  0.2265 -0.3660
22583SOL    HW169190   6.513   7.395   0.362 -1.6079 -2.1379 -0.8772
22583SOL    HW269191   6.661   7.384   0.333 -0.9395  0.8924  0.8785
22584SOL     OW69192   1.635   7.588   5.266 -0.2364 -0.4021  0.7207
22584SOL    HW169193   1.540   7.596   5.263 -0.2615 -0.0664  1.7695
22584SOL    HW269194   1.666   7.679   5.272  0.1959 -0.4651 -0.4157
22585SOL     OW69195   7.186   3.378   8.966  0.1090  0.4902  0.5896
22585SOL    HW169196   7.278   3.362   8.947  0.1286 -0.3527  1.3450
22585SOL    HW269197   7.161   3.447   8.905  0.3738 -1.4589 -1.8791
22586SOL     OW69198   5.570   2.317   1.464 -0.2783  0.1274 -0.1040
22586SOL    HW169199   5.499   2.381   1.463 -0.5889 -0.1390  1.4566
22586SOL    HW269200   5.649   2.367   1.447 -0.5963  0.8035  0.3759
22587SOL     OW69201   1.607   5.932   8.243 -0.4431 -0.1104 -0.3306
22587SOL    HW169202   1.529   5.892   8.205 -0.2067 -1.2718  0.3550
22587SOL    HW269203   1.574   5.998   8.303 -0.8589  0.2678 -0.9685
22588SOL     OW69204   3.244   2.103  11.004  0.0146  0.2762  0.3836
22588SOL    HW169205   3.324   2.143  11.038  0.3330 -0.6951  0.8291
22588SOL    HW269206   3.225   2.032  11.066 -0.6074 -0.1658 -0.2920
22589SOL     OW69207   3.879   1.774   1.955  0.3777  0.0660  0.1413
22589SOL    HW169208   3.818   1.729   2.013  0.5037 -0.9499 -0.4906
22589SOL    HW269209   3.895   1.858   1.998 -1.3768  0.3251  0.3734
22590SOL     OW69210   5.878   4.733   6.395  0.1269  0.5328 -0.0416
22590SOL    HW169211   5.937   4.776   6.332  0.7817 -0.0471  0.1632
22590SOL    HW269212   5.926   4.656   6.424  0.6784  1.7448  2.5850
22591SOL     OW69213   4.502   3.083   7.946  0.4927  0.5369 -0.1717
22591SOL    HW169214   4.570   3.052   8.006  0.0915  0.9933  0.5482
22591SOL    HW269215   4.548   3.105   7.866  1.1073  0.2669  0.1049
22592SOL     OW69216   4.980   4.688   8.426 -0.6543 -0.4618 -0.1115
22592SOL    HW169217   5.003   4.778   8.401  0.7781 -0.5555  0.7700
22592SOL    HW269218   5.023   4.633   8.360  1.7633 -0.6337  1.4956
22593SOL     OW69219   4.701   6.155   8.987  0.4026 -0.5741  0.5033
22593SOL    HW169220   4.762   6.166   8.914 -0.5968  1.3904 -0.1269
22593SOL    HW269221   4.720   6.228   9.046 -0.9145 -0.2660  0.5776
22594SOL     OW69222   3.486   6.164   3.198  0.6662  0.0663 -0.3505
22594SOL    HW169223   3.505   6.230   3.264 -0.0404  0.0806 -0.1530
22594SOL    HW269224   3.572   6.131   3.171  1.0276  1.1078 -0.5023
22595SOL     OW69225   4.111   4.086   6.028  0.2234 -0.4201 -0.2499
22595SOL    HW169226   4.103   4.011   6.087  1.8045  0.1542  0.7939
22595SOL    HW269227   4.194   4.071   5.983 -0.1391  0.0133 -1.0742
22596SOL     OW69228   0.693   5.542   2.291  0.1714 -0.2288 -0.3188
22596SOL    HW169229   0.741   5.460   2.303  0.4291 -0.1945 -1.0517
22596SOL    HW269230   0.761   5.610   2.295  0.1465 -0.1522 -0.9817
22597SOL     OW69231   2.828   0.653  11.639 -0.3512  0.5372 -0.0515
22597SOL    HW169232   2.861   0.564  11.630  0.0510  0.4989  1.4010
22597SOL    HW269233   2.753   0.657  11.581  1.6581  0.3705 -2.8705
22598SOL     OW69234   0.792   5.962   3.935  0.1965  0.1260  0.1446
22598SOL    HW169235   0.835   6.035   3.890  0.8934  0.2556  0.9791
22598SOL    HW269236   0.772   5.899   3.866 -0.5624  1.1732 -0.6053
22599SOL     OW69237   2.572   5.398   0.486 -0.8590  0.6393 -0.2190
22599SOL    HW169238   2.565   5.398   0.390 -1.4677  0.2428 -0.1786
22599SOL    HW269239   2.555   5.308   0.511  2.5684 -0.0687  0.0748
22600SOL     OW69240   5.754   3.561   2.902  0.2179  0.4861  0.5247
22600SOL    HW169241   5.699   3.490   2.869  1.8323 -0.9829  0.8753
22600SOL    HW269242   5.843   3.536   2.877  0.8202  2.4971  0.5021
22601SOL     OW69243   3.051   6.775   2.268 -0.4635  0.2477 -0.6500
22601SOL    HW169244   2.991   6.701   2.278 -1.1378  0.6069 -1.8330
22601SOL    HW269245   3.038   6.827   2.347  1.3223 -1.7369  1.0965
22602SOL     OW69246   0.664   0.896   1.014  0.0856 -0.5031  0.0390
22602SOL    HW169247   0.697   0.902   0.925 -0.1205 -1.3733 -0.1072
22602SOL    HW269248   0.657   0.987   1.044 -1.0401 -0.1222 -1.2809
22603SOL     OW69249   2.558   4.028   6.999 -0.1303  1.1346 -0.1212
22603SOL    HW169250   2.603   4.041   6.916 -0.2633  0.1612 -0.3645
22603SOL    HW269251   2.600   3.950   7.036 -0.6543  1.0564  0.3133
22604SOL     OW69252   7.501   4.106   1.657 -0.3279  0.0958 -0.2665
22604SOL    HW169253   7.473   4.154   1.580 -0.0750  0.2621 -0.2582
22604SOL    HW269254   7.447   4.027   1.658 -1.9342  1.1688  0.6563
22605SOL     OW69255   4.395   2.152   8.744  0.0619 -0.3719  0.4703
22605SOL    HW169256   4.445   2.151   8.662 -1.9284 -1.5724 -0.8149
22605SOL    HW269257   4.365   2.243   8.753 -0.0369 -0.3148 -0.3601
22606SOL     OW69258   0.182   3.195   7.697 -0.0378 -0.1593 -0.6579
22606SOL    HW169259   0.120   3.235   7.636  0.2150  0.9792 -0.1913
22606SOL    HW269260   0.162   3.101   7.692 -0.9364  0.0481 -1.4605
22607SOL     OW69261   1.783   5.248   8.053  0.4205  0.1897  0.1210
22607SOL    HW169262   1.693   5.237   8.022  0.3087  0.8547  0.2001
22607SOL    HW269263   1.775   5.299   8.133  1.0108  2.4109 -1.1410
22608SOL     OW69264   0.773   2.538   4.423  0.3205  0.1823  0.3931
22608SOL    HW169265   0.801   2.508   4.336 -0.0120  0.1258  0.3032
22608SOL    HW269266   0.680   2.516   4.427  0.0225  1.3633  0.2558
22609SOL     OW69267   7.930   4.233   1.322  0.5452 -0.3504 -0.2154
22609SOL    HW169268   7.943   4.149   1.366  0.1026 -0.1858  0.2472
22609SOL    HW269269   7.854   4.272   1.366  1.9647  1.2072  0.9793
22610SOL     OW69270   2.387   6.560   4.973  0.4309 -0.7866  0.1935
22610SOL    HW169271   2.405   6.631   4.911 -0.2001 -0.0024  0.8779
22610SOL    HW269272   2.453   6.494   4.954 -0.3760 -1.0435 -2.0238
22611SOL     OW69273   4.140   5.010   2.475 -0.0806  0.3806  0.1347
22611SOL    HW169274   4.078   4.991   2.404 -0.8452 -0.7582  1.0753
22611SOL    HW269275   4.221   5.033   2.430 -0.6669  0.1126 -1.1076
22612SOL     OW69276   5.118   0.397   7.333  0.0961  0.7056  0.0608
22612SOL    HW169277   5.136   0.314   7.288 -0.0146 -0.2927  1.7769
22612SOL    HW269278   5.071   0.450   7.268  0.4030 -0.4630 -1.1602
22613SOL     OW69279   3.924   5.386   8.684  0.1812  0.3411 -0.0346
22613SOL    HW169280   3.961   5.299   8.700 -1.2825 -0.2900  0.1168
22613SOL    HW269281   3.977   5.445   8.738  0.4727 -0.6189  0.7696
22614SOL     OW69282   7.617   1.384   8.140  0.0043 -0.4065  0.5940
22614SOL    HW169283   7.705   1.383   8.178 -0.0747 -1.8672  0.7712
22614SOL    HW269284   7.633   1.389   8.045  0.2691 -0.3678  0.6386
22615SOL     OW69285   6.655   3.968   7.494 -0.3644 -0.0699  0.5985
22615SOL    HW169286   6.703   3.886   7.484  0.5866  0.7069 -2.1081
22615SOL    HW269287   6.596   3.952   7.567  1.0756 -2.5102  1.3681
22616SOL     OW69288   7.868   5.831   8.650 -0.2074  0.4959 -0.0147
22616SOL    HW169289   7.830   5.901   8.704  0.2210  0.1770  0.7101
22616SOL    HW269290   7.794   5.797   8.600 -0.9699 -0.3492  1.6247
22617SOL     OW69291   4.798   5.213  11.752  0.4521 -0.2246  0.3340
22617SOL    HW169292   4.773   5.127  11.787 -0.6821 -0.0174  0.0456
22617SOL    HW269293   4.779   5.274  11.823 -2.5790  0.3018 -0.8066
22618SOL     OW69294   1.107   7.231   4.987  0.2450 -0.3961 -0.0805
22618SOL    HW169295   1.138   7.255   4.899  0.8722  0.1495  0.2716
22618SOL    HW269296   1.174   7.267   5.045 -0.8722  0.4695  0.6988
22619SOL     OW69297   0.807   3.279   9.352  0.3151  0.4334 -0.2727
22619SOL    HW169298   0.832   3.329   9.274  1.3068  0.1476 -0.1610
22619SOL    HW269299   0.874   3.301   9.417  0.9097 -1.1533 -0.2933
22620SOL     OW69300   2.339   7.418   2.735 -0.5352 -0.4077 -0.4855
22620SOL    HW169301   2.319   7.335   2.693 -2.6918  0.0740 -0.5263
22620SOL    HW269302   2.278   7.423   2.809 -0.3703  1.0714 -0.4131
22621SOL     OW69303   4.367   3.872  11.847  0.2054 -0.3532  0.1977
22621SOL    HW169304   4.283   3.835  11.874  0.2496  0.0214  0.8582
22621SOL    HW269305   4.347   3.926  11.771  0.0500 -1.2681 -0.4337
22622SOL     OW69306   4.626   7.797  10.690  0.4050 -0.3915 -0.4844
22622SOL    HW169307   4.566   7.863  10.656  0.2158 -0.3875 -0.1436
22622SOL    HW269308   4.596   7.715  10.652 -0.9720 -0.6867  1.1322
22623SOL     OW69309   3.983   0.673   2.066 -0.0940  0.1301  0.1849
22623SOL    HW169310   3.949   0.605   2.009  0.9836 -1.0492  0.9095
22623SOL    HW269311   4.068   0.641   2.096  0.1271  1.4583  1.1249
22624SOL     OW69312   5.936   2.670   7.945  0.2378  0.0012  0.3115
22624SOL    HW169313   5.859   2.617   7.921  0.4053 -0.2606  0.3541
22624SOL    HW269314   5.990   2.612   7.998  0.0648  0.4468  1.0050
22625SOL     OW69315   0.202   0.462   8.142 -0.4744 -0.1844 -0.1104
22625SOL    HW169316   0.167   0.379   8.175 -0.8881  0.3743  0.9066
22625SOL    HW269317   0.125   0.518   8.132  0.0459  1.2513  2.6734
22626SOL     OW69318   2.140   1.821   0.463  0.1753  0.0247  0.3930
22626SOL    HW169319   2.155   1.907   0.502  4.6843 -0.9568  1.3587
22626SOL    HW269320   2.107   1.768   0.535 -1.2571  0.5354  0.1477
22627SOL     OW69321   0.126   1.600   7.688 -0.3881  0.2981  0.7104
22627SOL    HW169322   0.205   1.551   7.667 -1.0580 -0.7813  0.6547
22627SOL    HW269323   0.064   1.535   7.721 -1.8443  0.8194 -0.8267
22628SOL     OW69324   0.365   7.465  10.751  0.9142 -0.6666 -0.0046
22628SOL    HW169325   0.308   7.516  10.694 -0.5747 -0.1619  1.8397
22628SOL    HW269326   0.454   7.496  10.730  0.2311  1.0572 -0.5086
22629SOL     OW69327   2.044   5.028   7.313 -0.6962  0.4355  0.3190
22629SOL    HW169328   2.087   5.033   7.227 -0.1480 -1.1261  0.4841
22629SOL    HW269329   2.071   4.944   7.349 -2.1440  0.3952  1.3875
22630SOL     OW69330   2.426   1.598  12.176  0.6401  0.3457 -0.0329
22630SOL    HW169331   2.391   1.650  12.247  0.2784  1.6488 -1.1266
22630SOL    HW269332   2.499   1.549  12.215 -1.0432 -0.8389  1.7721
22631SOL     OW69333   7.536   0.340   9.658  0.0341 -0.1847 -0.2401
22631SOL    HW169334   7.581   0.418   9.626 -1.4724  0.6373 -0.4156
22631SOL    HW269335   7.530   0.282   9.582  2.3040 -1.0913  0.1831
22632SOL     OW69336   7.657   0.649   6.824 -0.5149  0.1554 -0.2749
22632SOL    HW169337   7.670   0.559   6.794 -2.2860 -0.2968  0.1934
22632SOL    HW269338   7.579   0.645   6.879 -0.4459  1.9308  0.0086
22633SOL     OW69339   0.397   4.783   6.886  0.0533  0.0429 -0.0001
22633SOL    HW169340   0.366   4.844   6.953 -1.0156 -0.9924  0.4843
22633SOL    HW269341   0.342   4.801   6.810 -0.3251 -0.3729  0.1733
22634SOL     OW69342   3.415   4.307   6.842 -0.6791  0.4249  0.3671
22634SOL    HW169343   3.466   4.273   6.916  2.1724  1.2451 -1.0654
22634SOL    HW269344   3.405   4.400   6.861  1.3496  0.9605 -0.8248
22635SOL     OW69345   3.311   5.531  11.741 -0.6670 -0.5106  0.4531
22635SOL    HW169346   3.223   5.549  11.706  0.1616  0.7838 -1.1207
22635SOL    HW269347   3.298   5.525  11.836 -2.5048 -0.7196  0.2252
22636SOL     OW69348   1.913   0.338   4.487 -0.2583  0.4281  0.0190
22636SOL    HW169349   1.892   0.263   4.543 -0.6816  0.0124 -0.6876
22636SOL    HW269350   2.008   0.333   4.475 -0.0799  0.8370  1.1363
22637SOL     OW69351   1.680   3.605   6.002  0.0856  0.1173  0.2352
22637SOL    HW169352   1.624   3.528   5.993 -0.8853  0.8231  0.0837
22637SOL    HW269353   1.743   3.582   6.070  1.1894 -1.6097 -1.2634
22638SOL     OW69354   6.583   0.804   3.968 -0.4457  0.3379 -0.1699
22638SOL    HW169355   6.531   0.726   3.950  0.5179 -0.8066  1.7096
22638SOL    HW269356   6.518   0.873   3.981 -1.3643 -0.3854 -0.7188
22639SOL     OW69357   1.251   1.513   1.431 -0.0769 -0.4444 -0.0410
22639SOL    HW169358   1.317   1.484   1.493  1.0419 -0.9641 -1.4248
22639SOL    HW269359   1.218   1.433   1.390 -2.3773 -0.3008  1.3458
22640SOL     OW69360   2.579   4.873   6.340  0.1124 -0.1083  0.1691
22640SOL    HW169361   2.487   4.892   6.356  0.1573  0.4168 -0.1601
22640SOL    HW269362   2.579   4.790   6.293 -0.2354  0.2179 -0.4226
22641SOL     OW69363   3.290   2.246   5.426  0.0276  0.2645  0.7700
22641SOL    HW169364   3.240   2.324   5.403  1.6160  1.1127 -0.0190
22641SOL    HW269365   3.281   2.188   5.350 -0.5024  0.0311  1.0139
22642SOL     OW69366   6.910   4.189   3.243 -0.2365 -0.2345 -0.0131
22642SOL    HW169367   6.969   4.227   3.308 -1.4779  1.9052 -0.0368
22642SOL    HW269368   6.859   4.124   3.292  0.7183 -0.6228  0.4812
22643SOL     OW69369   2.561   3.430   2.539 -0.3196  0.1486  0.2073
22643SOL    HW169370   2.513   3.428   2.622  0.6485 -0.3328  0.7759
22643SOL    HW269371   2.568   3.338   2.513 -0.9689  0.3262 -0.6286
22644SOL     OW69372   3.220   3.158   0.247  0.0256 -0.6595 -0.0749
22644SOL    HW169373   3.239   3.170   0.154 -0.7637  1.9464  0.0137
22644SOL    HW269374   3.259   3.235   0.290 -0.1225 -1.5126  1.6811
22645SOL     OW69375   5.483   7.677   3.254  0.0601 -0.1117  0.4543
22645SOL    HW169376   5.506   7.590   3.222 -0.6483 -0.3889  0.6765
22645SOL    HW269377   5.457   7.726   3.176 -2.0895 -0.9202  0.5962
22646SOL     OW69378   2.952   2.778   5.290  0.0080  1.1283  0.0215
22646SOL    HW169379   2.901   2.698   5.297  0.8898 -0.1669 -4.6845
22646SOL    HW269380   3.038   2.755   5.326  0.0316  0.1533 -0.6286
22647SOL     OW69381   3.659   0.187   5.637  0.6898 -0.1808 -0.5667
22647SOL    HW169382   3.628   0.156   5.553 -0.7250  0.0323 -0.1593
22647SOL    HW269383   3.724   0.123   5.664  0.8207 -0.5023 -1.6077
22648SOL     OW69384   3.142   3.135   7.318  0.3253 -0.4365  0.4434
22648SOL    HW169385   3.057   3.142   7.274  0.1969  1.2197  0.8796
22648SOL    HW269386   3.206   3.144   7.247  0.1561 -1.6679  0.1164
22649SOL     OW69387   5.242   3.168  12.017  0.2899 -0.5060 -0.2831
22649SOL    HW169388   5.222   3.257  11.985  1.9603  0.3830  0.9988
22649SOL    HW269389   5.288   3.127  11.944  0.5992  0.1161 -0.4470
22650SOL     OW69390   6.510   0.810   8.466  0.4732  0.2828 -0.3977
22650SOL    HW169391   6.497   0.804   8.372 -0.9866 -0.7708 -0.1748
22650SOL    HW269392   6.522   0.903   8.483  1.4780  0.4147 -1.6906
22651SOL     OW69393   5.899   3.847  10.692 -0.4018  0.3674  0.2394
22651SOL    HW169394   5.971   3.788  10.715  0.8570  1.7529 -0.0419
22651SOL    HW269395   5.857   3.806  10.616  0.1739 -0.3639  0.3071
22652SOL     OW69396   3.474   2.841   5.618  0.3536 -0.8433  0.3253
22652SOL    HW169397   3.566   2.827   5.641  1.1529 -0.5691 -2.4055
22652SOL    HW269398   3.441   2.753   5.597  0.3698 -0.7815  0.0398
22653SOL     OW69399   3.274   4.958  10.825  0.6292 -0.0704  0.0992
22653SOL    HW169400   3.264   5.042  10.869 -0.1340 -0.0664 -0.0711
22653SOL    HW269401   3.219   4.898  10.876 -0.8995  0.0982 -1.2700
22654SOL     OW69402   1.851   0.955  11.920 -0.1215 -0.8604  0.3258
22654SOL    HW169403   1.811   0.977  12.005  1.6406 -0.8013  1.1771
22654SOL    HW269404   1.933   1.003  11.919  0.3380 -1.6408 -1.0068
22655SOL     OW69405   3.025   3.212   3.566 -1.0501  0.0120 -0.4433
22655SOL    HW169406   3.056   3.275   3.631  2.8634  0.6611 -2.6171
22655SOL    HW269407   2.956   3.163   3.611 -0.3826  2.0826  3.2448
22656SOL     OW69408   0.389   0.411  10.951 -0.2222 -0.7075  0.4152
22656SOL    HW169409   0.409   0.363  10.871 -1.2672  2.8701 -2.2210
22656SOL    HW269410   0.298   0.390  10.970 -0.3980 -0.4906 -0.1787
22657SOL     OW69411   2.601   5.893   4.266 -0.1566  0.6478  0.3653
22657SOL    HW169412   2.544   5.929   4.198  0.1276 -0.1278 -0.3087
22657SOL    HW269413   2.689   5.921   4.241 -0.1324  1.0064  0.8452
22658SOL     OW69414   1.754   2.829  11.965 -0.2580  0.2428  0.2749
22658SOL    HW169415   1.697   2.808  12.039  0.2674 -2.1642  0.0776
22658SOL    HW269416   1.834   2.779  11.982  0.8170  1.5700 -0.7241
22659SOL     OW69417   0.917   6.893   6.104  0.4185 -0.2328  0.1476
22659SOL    HW169418   0.867   6.812   6.116  1.7273 -1.0087  0.5133
22659SOL    HW269419   0.969   6.902   6.184  0.1081  1.1261  0.2257
22660SOL     OW69420   1.128   2.381   6.926 -0.1748  0.3928  0.3087
22660SOL    HW169421   1.111   2.471   6.897  0.1859  0.8058  1.3266
22660SOL    HW269422   1.049   2.333   6.904  0.3041  0.5259 -1.9030
22661SOL     OW69423   4.797   2.371  12.048  0.0495  0.2339  0.0583
22661SOL    HW169424   4.816   2.359  11.955  1.4613 -0.7999  0.4504
22661SOL    HW269425   4.745   2.295  12.071 -2.1111  1.5156 -0.3027
22662SOL     OW69426   1.062   2.144   4.269  0.2403  0.6150  0.1033
22662SOL    HW169427   1.052   2.049   4.276 -1.9551  0.8069  0.1967
22662SOL    HW269428   1.083   2.159   4.176  1.1813  0.0303  0.2046
22663SOL     OW69429   1.684   2.420  10.344 -0.3095  0.2438 -0.1625
22663SOL    HW169430   1.679   2.514  10.327  0.0429  0.2739 -0.1130
22663SOL    HW269431   1.777   2.403  10.353 -0.4563  0.2852  1.9861
22664SOL     OW69432   5.363   5.899   7.767 -0.2039 -0.9891 -0.4671
22664SOL    HW169433   5.331   5.972   7.713 -0.0144 -0.5815 -0.0404
22664SOL    HW269434   5.333   5.821   7.722  0.3846 -0.6739 -1.4571
22665SOL     OW69435   6.593   1.895  10.307 -0.3217 -0.1001  0.0574
22665SOL    HW169436   6.632   1.980  10.326 -0.9765  0.2693 -0.2072
22665SOL    HW269437   6.659   1.831  10.335 -0.5239  0.4409  1.9294
22666SOL     OW69438   0.078   3.913   7.145 -0.6630 -0.0263 -0.4875
22666SOL    HW169439   0.022   3.867   7.208  0.0495 -1.6171 -0.9549
22666SOL    HW269440   0.098   3.997   7.187 -1.0240 -0.6315  0.9585
22667SOL     OW69441   3.601   7.054   6.529 -0.1068  0.1522 -0.0909
22667SOL    HW169442   3.567   6.968   6.553  1.1311 -0.0937  0.8734
22667SOL    HW269443   3.572   7.111   6.600  0.6738  0.1339  0.2466
22668SOL     OW69444   4.056   3.180   1.135 -0.0416  0.2119 -0.3238
22668SOL    HW169445   4.074   3.106   1.077  1.0847  0.8760 -0.8489
22668SOL    HW269446   3.982   3.225   1.095 -0.4889 -0.4034 -0.2076
22669SOL     OW69447   6.408   5.925  11.921 -0.2550  0.1851  0.0241
22669SOL    HW169448   6.484   5.950  11.972 -1.2825 -0.2832  1.8683
22669SOL    HW269449   6.444   5.874  11.848  1.2901  1.3414 -0.0651
22670SOL     OW69450   3.069   2.816   9.735 -0.3951  0.1097  0.4395
22670SOL    HW169451   3.040   2.789   9.822  3.0307 -0.1860  1.6257
22670SOL    HW269452   3.114   2.900   9.749 -1.8420  1.2960 -1.5002
22671SOL     OW69453   6.187   4.852   9.585 -0.0331 -0.6872  0.2143
22671SOL    HW169454   6.140   4.796   9.523  1.2791 -1.0584 -0.4907
22671SOL    HW269455   6.119   4.886   9.643 -1.5906  0.8976 -2.3174
22672SOL     OW69456   0.932   5.933   9.519 -0.3333  0.0780  0.3961
22672SOL    HW169457   1.009   5.876   9.513 -0.2004  0.0446  1.9439
22672SOL    HW269458   0.949   6.003   9.457 -0.0233 -1.0105 -0.7932
22673SOL     OW69459   2.708   7.407   9.636  0.0409  0.9620 -0.9194
22673SOL    HW169460   2.652   7.473   9.597 -0.5401  0.3995 -1.0472
22673SOL    HW269461   2.715   7.433   9.728 -1.9164  0.0804 -0.4564
22674SOL     OW69462   0.987   6.598   1.143 -0.0003 -0.1251 -0.2533
22674SOL    HW169463   0.939   6.526   1.101  0.0179  0.8934 -2.1506
22674SOL    HW269464   0.926   6.634   1.207 -0.8726 -0.3702 -0.9289
22675SOL     OW69465   1.983   1.095   4.268 -0.2535 -0.3270 -0.0512
22675SOL    HW169466   2.053   1.160   4.277 -0.2404 -0.4304  0.6653
22675SOL    HW269467   1.979   1.077   4.174  2.1455 -1.9055  0.0608
22676SOL     OW69468   5.246   3.259   2.434 -0.6245  0.1155  0.1005
22676SOL    HW169469   5.222   3.294   2.349 -0.9382 -0.7069 -0.1643
22676SOL    HW269470   5.167   3.212   2.463 -0.6434  0.6797  1.0039
22677SOL     OW69471   6.842   0.245   8.651 -0.6183 -0.0502  0.8694
22677SOL    HW169472   6.879   0.333   8.644 -0.0585 -0.3348  0.0370
22677SOL    HW269473   6.898   0.201   8.716  1.4345 -0.8683 -1.2679
22678SOL     OW69474   6.809   4.917   3.542  0.3830 -0.0098  0.0851
22678SOL    HW169475   6.872   4.943   3.609  0.2540 -1.5865  0.8600
22678SOL    HW269476   6.731   4.892   3.591  0.3183 -1.2830 -0.6310
22679SOL     OW69477   3.678   2.693   5.340 -0.1435  0.1580  0.5997
22679SOL    HW169478   3.747   2.678   5.404 -0.4231 -1.2811  0.5952
22679SOL    HW269479   3.618   2.619   5.351 -0.4665  0.1439 -0.9586
22680SOL     OW69480   0.179   7.159  11.789  0.5579 -0.4134 -0.5048
22680SOL    HW169481   0.102   7.210  11.814  0.0813 -0.3536 -1.9986
22680SOL    HW269482   0.147   7.068  11.788  0.9246 -0.5589  0.3725
22681SOL     OW69483   7.722   5.635   3.815  0.2566  0.4341 -0.1318
22681SOL    HW169484   7.722   5.648   3.910 -0.5938 -0.2275 -0.0298
22681SOL    HW269485   7.730   5.724   3.779 -1.0403  0.8460  0.5502
22682SOL     OW69486   5.352   3.071  10.179 -0.4346  0.0392  0.6058
22682SOL    HW169487   5.404   3.003  10.137 -1.1934 -0.7841  0.9659
22682SOL    HW269488   5.286   3.023  10.229 -0.5095  1.0273  1.4848
22683SOL     OW69489   5.813   4.322   4.171 -0.3335  0.1797  0.2663
22683SOL    HW169490   5.903   4.357   4.172 -0.4667  0.5366  1.1952
22683SOL    HW269491   5.780   4.342   4.084  1.1857 -1.8193 -0.8614
22684SOL     OW69492   4.013   1.002   7.098 -0.4753 -0.1938  0.3458
22684SOL    HW169493   4.031   0.933   7.035 -0.2503 -0.8853  1.1519
22684SOL    HW269494   4.054   0.972   7.179  0.9046  1.5548  0.3596
22685SOL     OW69495   2.221   4.376  12.011 -0.4843 -0.2083 -0.1950
22685SOL    HW169496   2.141   4.347  11.967 -1.4099  0.1504  1.1952
22685SOL    HW269497   2.201   4.370  12.104  0.6299  1.1790  0.1688
22686SOL     OW69498   2.791   3.776   8.201  0.3416 -0.0726 -0.2001
22686SOL    HW169499   2.788   3.867   8.172 -0.4339  0.0378  0.1917
22686SOL    HW269500   2.814   3.780   8.294  1.5857 -0.3563 -0.4790
22687SOL     OW69501   6.783   2.939  11.530  0.1881 -0.0013  0.0158
22687SOL    HW169502   6.841   2.901  11.596  0.7083 -0.0969 -0.4885
22687SOL    HW269503   6.838   2.947  11.451 -0.5102 -0.1767 -0.4946
22688SOL     OW69504   1.734   5.726  12.265 -0.2515  0.2886  0.3808
22688SOL    HW169505   1.696   5.795  12.211 -0.8399 -0.0530  0.3604
22688SOL    HW269506   1.660   5.675  12.297 -0.1013  1.4736  2.9143
22689SOL     OW69507   1.676   5.342   7.640 -0.2237  0.1976  0.3053
22689SOL    HW169508   1.714   5.359   7.726 -0.8756  3.2997  0.0955
22689SOL    HW269509   1.587   5.313   7.658  0.3283 -1.3333  0.6786
22690SOL     OW69510   4.458   6.413  11.404  0.2400 -0.0127 -0.1507
22690SOL    HW169511   4.394   6.483  11.420  0.2464 -0.2507  1.0089
22690SOL    HW269512   4.435   6.345  11.468  1.2850 -0.3526 -0.1309
22691SOL     OW69513   6.124   6.999   6.275 -0.1277  0.4045  0.1100
22691SOL    HW169514   6.086   7.036   6.196  1.0194 -1.0192 -1.1691
22691SOL    HW269515   6.084   7.048   6.347 -1.1423  1.7769 -1.3450
22692SOL     OW69516   6.577   5.346   4.231 -0.3326 -0.2276  0.3648
22692SOL    HW169517   6.647   5.311   4.175 -0.7291 -1.2426  0.4775
22692SOL    HW269518   6.505   5.363   4.171 -0.8664 -1.6043  0.5618
22693SOL     OW69519   6.686   2.579  10.231 -0.2243  0.4085 -0.0329
22693SOL    HW169520   6.701   2.496  10.278  0.8263  1.1093  0.9290
22693SOL    HW269521   6.593   2.596  10.241 -0.4751 -0.7114 -0.3374
22694SOL     OW69522   1.291   4.385   8.951 -0.2841 -0.1493 -0.4383
22694SOL    HW169523   1.216   4.443   8.943  1.2080  1.8651 -0.7584
22694SOL    HW269524   1.264   4.319   9.014 -1.6303  1.6889  1.0367
22695SOL     OW69525   3.822   2.703   1.772  0.3979 -0.3589 -0.5700
22695SOL    HW169526   3.793   2.724   1.860 -1.1806 -0.8725 -0.9286
22695SOL    HW269527   3.847   2.787   1.734 -1.1657  0.2183 -0.3922
22696SOL     OW69528   5.948   6.579   2.524 -0.5740 -0.2646  0.1193
22696SOL    HW169529   5.862   6.542   2.543 -2.1773  3.0837  0.2238
22696SOL    HW269530   5.935   6.628   2.443  1.3403 -0.0002 -0.0597
22697SOL     OW69531   2.143   0.114   1.242  0.4059 -0.2546  0.0487
22697SOL    HW169532   2.215   0.060   1.209 -0.1042 -0.4498 -0.7601
22697SOL    HW269533   2.145   0.192   1.186  0.1578 -0.1369  0.2030
22698SOL     OW69534   2.063   3.157   7.590  0.1376 -0.0004 -0.1044
22698SOL    HW169535   2.059   3.192   7.679  0.4686 -0.6242  0.1637
22698SOL    HW269536   2.018   3.222   7.536 -1.4634 -0.3374  0.7563
22699SOL     OW69537   0.410   2.139  10.076 -0.6729 -0.2031  1.0691
22699SOL    HW169538   0.356   2.153   9.998 -0.7151  2.0444  1.4397
22699SOL    HW269539   0.348   2.129  10.148 -0.7201  2.7944  1.5629
22700SOL     OW69540   7.372   5.276  10.617  0.4528 -0.3191  0.2010
22700SOL    HW169541   7.361   5.181  10.617 -1.0790 -0.1520 -0.1260
22700SOL    HW269542   7.284   5.311  10.610  0.9077  1.1529  1.2239
22701SOL     OW69543   3.070   1.773   5.487 -0.3000 -0.0434  0.4316
22701SOL    HW169544   3.003   1.813   5.542 -0.9470 -1.5250  0.7808
22701SOL    HW269545   3.140   1.751   5.548 -0.2133  0.0091  0.3500
22702SOL     OW69546   0.852   0.529   8.863  0.3334 -0.3001 -0.5109
22702SOL    HW169547   0.757   0.516   8.871 -0.0648  0.3875 -3.0912
22702SOL    HW269548   0.876   0.579   8.942 -1.5828  0.1236 -0.1396
22703SOL     OW69549   4.485   5.922   4.665  0.6319  0.1407 -0.2780
22703SOL    HW169550   4.448   6.010   4.674  1.2108  0.8264 -3.4694
22703SOL    HW269551   4.436   5.882   4.594  0.9989 -1.8372  0.5003
22704SOL     OW69552   4.748   1.804  12.177 -0.4114 -0.2453  0.6651
22704SOL    HW169553   4.675   1.833  12.123 -0.2105 -0.5400  0.2256
22704SOL    HW269554   4.746   1.709  12.173 -0.9937 -0.3156  2.0040
22705SOL     OW69555   5.164   3.986   9.922 -0.5600  0.4447 -0.2335
22705SOL    HW169556   5.227   4.035   9.868 -0.7418 -0.1146 -0.9618
22705SOL    HW269557   5.218   3.949   9.992 -0.0567 -0.0499 -0.8640
22706SOL     OW69558   2.695   4.850   1.822 -0.2928 -0.1878 -0.1588
22706SOL    HW169559   2.790   4.858   1.825 -0.3463  0.8516 -0.6613
22706SOL    HW269560   2.674   4.784   1.888  0.6078  1.2954  1.6998
22707SOL     OW69561   5.041   4.664   9.890  0.0732 -0.0246 -0.1243
22707SOL    HW169562   4.987   4.610   9.833  0.5674 -0.6895  0.0239
22707SOL    HW269563   5.096   4.601   9.937 -0.8764  0.4156  1.6920
22708SOL     OW69564   3.669   7.146   8.882 -0.4456 -0.3270 -0.2922
22708SOL    HW169565   3.591   7.188   8.919 -1.4550 -0.5622 -2.0248
22708SOL    HW269566   3.696   7.083   8.948 -0.3542  1.3147  1.3160
22709SOL     OW69567   3.879   0.161   5.331 -0.5565 -0.6931 -0.1436
22709SOL    HW169568   3.919   0.076   5.350  0.6334 -0.1788 -0.2061
22709SOL    HW269569   3.898   0.214   5.408 -0.7681 -0.3182 -0.3461
22710SOL     OW69570   2.868   3.853   5.523  0.0015 -0.3699  0.3451
22710SOL    HW169571   2.775   3.864   5.504  0.1353  1.4768  0.6022
22710SOL    HW269572   2.911   3.857   5.438 -0.0297  0.4074  0.3602
22711SOL     OW69573   1.719   0.414   1.459 -0.6313 -0.0394 -0.0913
22711SOL    HW169574   1.743   0.321   1.468 -1.0398 -0.3078 -1.5230
22711SOL    HW269575   1.773   0.459   1.524 -1.8821 -1.4877  2.0744
22712SOL     OW69576   3.196   2.398   9.357 -0.1878 -0.1065 -0.7249
22712SOL    HW169577   3.201   2.362   9.446 -0.6563 -0.9102 -1.0074
22712SOL    HW269578   3.279   2.443   9.344  0.1621 -0.5677 -0.1230
22713SOL     OW69579   7.046   5.926  12.350  0.0250  0.7047  0.2839
22713SOL    HW169580   7.120   5.911  12.409 -0.9745 -0.5570  1.2913
22713SOL    HW269581   6.995   5.996  12.392 -0.7867 -0.3214  1.0790
22714SOL     OW69582   7.340   0.470   9.794  0.1410 -0.9059 -0.3535
22714SOL    HW169583   7.272   0.457   9.728 -0.1969  3.3008 -1.1058
22714SOL    HW269584   7.413   0.416   9.765 -0.8379 -0.9889 -2.9016
22715SOL     OW69585   1.869   1.989   8.334  0.4985  0.8127 -0.2918
22715SOL    HW169586   1.841   2.079   8.352 -3.6570  0.0971 -2.0997
22715SOL    HW269587   1.896   1.990   8.242 -1.6067 -0.0827 -0.9761
22716SOL     OW69588   2.729   7.128  11.014  0.0235  0.3559 -0.0215
22716SOL    HW169589   2.670   7.132  10.938 -1.2025 -0.0863  0.8753
22716SOL    HW269590   2.765   7.039  11.012  0.5046  0.5562 -0.4482
22717SOL     OW69591   0.590   6.972   9.341 -0.0541  0.0164 -0.9607
22717SOL    HW169592   0.501   7.008   9.337 -0.0754  0.1667  0.4146
22717SOL    HW269593   0.641   7.039   9.388  0.6344 -0.3534 -1.1703
22718SOL     OW69594   2.739   4.393   1.753  0.0166 -0.8100  0.5245
22718SOL    HW169595   2.748   4.362   1.843 -1.2723 -0.0468  0.9428
22718SOL    HW269596   2.649   4.424   1.747  0.8907  1.8973 -0.1242
22719SOL     OW69597   7.879   2.952   9.734  0.0708 -0.1694  0.4599
22719SOL    HW169598   7.833   3.035   9.742  0.4533  0.0385  0.5492
22719SOL    HW269599   7.823   2.889   9.778 -1.9947 -0.6924 -2.5618
22720SOL     OW69600   6.108   4.721  12.088  0.0510 -0.1913  0.2169
22720SOL    HW169601   6.065   4.706  12.173  0.8667 -1.5879  0.4068
22720SOL    HW269602   6.046   4.687  12.024 -0.6162  0.9659  0.2213
22721SOL     OW69603   6.476   6.080   0.654 -0.2996 -0.0187  0.6637
22721SOL    HW169604   6.435   6.023   0.719  0.5715 -0.6762  0.6466
22721SOL    HW269605   6.560   6.038   0.635 -1.0503 -0.5481 -1.8321
22722SOL     OW69606   5.703   3.522  10.425 -0.1168  0.0589 -0.1573
22722SOL    HW169607   5.623   3.476  10.452  0.0636  0.6668  1.5478
22722SOL    HW269608   5.772   3.484  10.479  0.2939  1.2536  0.2016
22723SOL     OW69609   3.533   7.405  10.099  0.1693  0.0426  0.2029
22723SOL    HW169610   3.550   7.324  10.147  3.4362  0.0158 -0.8146
22723SOL    HW269611   3.518   7.377  10.009  1.2363  0.5429 -0.1399
22724SOL     OW69612   0.415   0.535   8.570  0.0645  0.7753  0.3642
22724SOL    HW169613   0.446   0.528   8.660  0.0724  2.8580  0.5501
22724SOL    HW269614   0.379   0.623   8.563 -3.2431 -0.4897 -0.6655
22725SOL     OW69615   1.007   3.857   7.155  0.1518  0.3844 -0.2611
22725SOL    HW169616   0.956   3.876   7.077 -0.3944 -1.4262 -0.3694
22725SOL    HW269617   0.959   3.901   7.226 -1.0456 -0.4692 -0.5099
22726SOL     OW69618   7.453   1.144   3.825  0.4582  0.7862 -0.0406
22726SOL    HW169619   7.547   1.127   3.835  0.4237 -0.0912 -1.0473
22726SOL    HW269620   7.412   1.080   3.884  0.4635  0.4327 -0.4179
22727SOL     OW69621   1.548   3.990   2.089  0.5559  0.1114  0.1797
22727SOL    HW169622   1.555   3.983   2.184 -2.6244  0.6507  0.5437
22727SOL    HW269623   1.459   3.961   2.069  0.3948  2.0511 -2.3999
22728SOL     OW69624   0.830   6.898   5.610  0.0673  0.0083  0.0393
22728SOL    HW169625   0.777   6.970   5.643 -0.4085 -0.0835 -0.4887
22728SOL    HW269626   0.886   6.938   5.544  1.1122  0.2167  1.0317
22729SOL     OW69627   2.191   6.585   8.468 -0.3324  0.1322 -0.3096
22729SOL    HW169628   2.118   6.580   8.530  1.2368  0.1100  1.6223
22729SOL    HW269629   2.269   6.567   8.521  1.0389 -0.4961 -2.4281
22730SOL     OW69630   3.488   6.689  11.952  0.3029  0.0973  0.4493
22730SOL    HW169631   3.577   6.690  11.916 -0.2298  0.2455 -0.9066
22730SOL    HW269632   3.444   6.763  11.910 -1.3374 -1.7159 -1.2279
22731SOL     OW69633   5.388   2.049  11.344 -0.1806 -0.3656 -0.0168
22731SOL    HW169634   5.358   2.004  11.422  0.9716  1.4342  1.5375
22731SOL    HW269635   5.444   2.119  11.376  0.5574  0.2765 -2.4800
22732SOL     OW69636   5.663   2.047   6.694  0.1205  0.5475  0.0599
22732SOL    HW169637   5.751   2.082   6.704 -0.0287  0.4228  2.2699
22732SOL    HW269638   5.606   2.124   6.699  0.0704  0.6558 -1.5943
22733SOL     OW69639   5.293   1.000   8.334  0.1027  0.0301 -0.0992
22733SOL    HW169640   5.349   1.014   8.411 -1.0164  0.7410  0.6204
22733SOL    HW269641   5.268   0.908   8.340  0.3400 -0.0217  0.1538
22734SOL     OW69642   6.948   5.584   5.963  0.1551 -0.0771  0.2763
22734SOL    HW169643   6.942   5.608   5.871  0.0947 -1.8179 -0.2140
22734SOL    HW269644   7.041   5.581   5.982  0.2553 -1.7675 -0.3442
22735SOL     OW69645   3.906   5.432  10.207 -0.4456 -0.3513 -0.0639
22735SOL    HW169646   3.837   5.416  10.144 -0.3920 -0.5798 -0.0640
22735SOL    HW269647   3.918   5.348  10.252 -0.5084 -0.1837  0.2744
22736SOL     OW69648   0.397   6.802   3.383  0.2069  0.4002 -0.1853
22736SOL    HW169649   0.341   6.853   3.325 -1.1327  0.8547  1.4161
22736SOL    HW269650   0.343   6.728   3.410  0.9533 -0.0385  0.1323
22737SOL     OW69651   0.841   3.857   5.475  0.3582 -0.6417  0.0561
22737SOL    HW169652   0.873   3.867   5.565 -0.4684 -0.7048  0.3679
22737SOL    HW269653   0.890   3.782   5.440  2.8906  1.1856 -0.5867
22738SOL     OW69654   2.224   3.930   0.545 -0.0416  0.3266 -0.2319
22738SOL    HW169655   2.222   3.847   0.593  1.2111  0.7763  0.6384
22738SOL    HW269656   2.296   3.920   0.483  0.1728  0.8061 -0.0592
22739SOL     OW69657   0.446   3.600   9.331 -0.1288  0.1706 -0.0386
22739SOL    HW169658   0.432   3.688   9.366  1.9481  0.4300  0.2636
22739SOL    HW269659   0.540   3.595   9.315 -0.1228 -2.1468  0.3698
22740SOL     OW69660   5.186   1.814   0.898 -0.3768 -0.5504  0.2565
22740SOL    HW169661   5.212   1.776   0.814  0.9602 -0.7922  0.7452
22740SOL    HW269662   5.093   1.792   0.907 -0.6868 -0.0713 -1.3756
22741SOL     OW69663   6.241   4.259   6.300 -0.1237 -0.8330  0.2561
22741SOL    HW169664   6.148   4.266   6.319 -0.2399 -1.3273 -0.1386
22741SOL    HW269665   6.256   4.166   6.282 -0.0481 -0.4071 -2.2190
22742SOL     OW69666   2.259   6.439   0.466 -0.1054  0.0470  0.3935
22742SOL    HW169667   2.342   6.488   0.465  0.5748 -1.0566 -1.6824
22742SOL    HW269668   2.204   6.485   0.403 -0.0947 -0.8115 -0.2473
22743SOL     OW69669   3.491   4.582   1.180  0.2864 -0.1786  0.6638
22743SOL    HW169670   3.582   4.608   1.191  0.0640  0.4740  1.0289
22743SOL    HW269671   3.462   4.631   1.102 -0.1278  0.6884  1.3421
22744SOL     OW69672   2.014   1.965   4.269  0.3805  0.3550  0.1827
22744SOL    HW169673   2.037   2.004   4.354  0.7046  0.7256 -0.0661
22744SOL    HW269674   1.919   1.971   4.265  0.3179 -0.1596  0.7504
22745SOL     OW69675   7.074   0.734   2.205  0.3518  0.3743 -0.1939
22745SOL    HW169676   7.112   0.822   2.209  2.4942 -0.5231  1.9533
22745SOL    HW269677   7.057   0.711   2.296 -1.0477 -1.1179 -0.7761
22746SOL     OW69678   7.854   3.589   0.424  0.4769  0.1041 -0.2945
22746SOL    HW169679   7.825   3.501   0.402  0.6387  0.0990 -0.4933
22746SOL    HW269680   7.947   3.590   0.399  0.4688  0.3367 -0.3172
22747SOL     OW69681   5.261   0.005  10.589 -0.6493 -0.0120 -0.0086
22747SOL    HW169682   5.193   0.070  10.606 -0.4854 -0.0228  0.7008
22747SOL    HW269683   5.233  -0.072  10.639  0.2758  0.2372  0.9305
22748SOL     OW69684   6.654   5.289   2.713  0.0932  0.8983 -0.6284
22748SOL    HW169685   6.608   5.333   2.642  0.5100  0.5064 -1.1530
22748SOL    HW269686   6.681   5.205   2.676 -1.0382  0.0113  0.4602
22749SOL     OW69687   7.621   3.130  11.154  0.5015 -0.5159  0.0002
22749SOL    HW169688   7.655   3.064  11.095  1.4716  0.1492 -0.2035
22749SOL    HW269689   7.637   3.213  11.110  0.0337 -0.0886  0.6068
22750SOL     OW69690   6.462   4.640   1.267 -0.0847 -0.0890  0.3377
22750SOL    HW169691   6.450   4.715   1.325 -0.0094  0.1755  0.0188
22750SOL    HW269692   6.492   4.570   1.323  1.0994  0.4764  0.4378
22751SOL     OW69693   5.178   2.695   3.053 -0.0167 -0.0550  0.9205
22751SOL    HW169694   5.114   2.637   3.012  1.4661 -1.3964  0.3929
22751SOL    HW269695   5.129   2.738   3.123 -1.5361 -0.8688  0.4214
22752SOL     OW69696   4.776   0.294  10.473 -0.3096 -0.4460 -0.3115
22752SOL    HW169697   4.769   0.309  10.378 -0.2992 -1.9230 -0.5734
22752SOL    HW269698   4.732   0.369  10.512  1.8054  1.4889 -1.3956
22753SOL     OW69699   5.785   4.734   1.060 -0.5287  0.7133 -0.1081
22753SOL    HW169700   5.792   4.652   1.011  1.0567  0.5421  0.3793
22753SOL    HW269701   5.694   4.735   1.091 -0.8650 -0.3483 -0.9868
22754SOL     OW69702   0.153   0.879   3.325 -0.5023 -0.0592  0.3430
22754SOL    HW169703   0.202   0.798   3.342 -0.3520  0.0250  0.3106
22754SOL    HW269704   0.104   0.895   3.405  0.3209  0.4214  0.7648
22755SOL     OW69705   0.533   5.602   8.083  0.2020  0.0167  0.1290
22755SOL    HW169706   0.476   5.637   8.015  0.1466  0.5883  0.4627
22755SOL    HW269707   0.482   5.533   8.125  0.7899 -1.3882 -1.3878
22756SOL     OW69708   0.779   0.024   3.374  0.6332 -0.2819 -0.1801
22756SOL    HW169709   0.781  -0.054   3.430  0.1488 -1.3314 -1.5670
22756SOL    HW269710   0.819   0.093   3.427  0.3997 -1.2877  1.3596
22757SOL     OW69711   1.033   3.927   1.113  0.2829  0.2359 -0.3026
22757SOL    HW169712   1.065   3.847   1.070 -2.3419 -0.8715 -0.3959
22757SOL    HW269713   0.982   3.895   1.187  2.0215  2.0167  1.7902
22758SOL     OW69714   0.398   5.304   8.046 -0.2343  0.1223 -0.0972
22758SOL    HW169715   0.455   5.354   7.989  1.7204 -0.0986  1.5507
22758SOL    HW269716   0.451   5.230   8.074 -0.9935  0.3672  2.1951
22759SOL     OW69717   2.529   3.925   5.036 -0.0538 -0.0552  0.4323
22759SOL    HW169718   2.557   3.902   4.947 -0.5148 -0.9091  0.4925
22759SOL    HW269719   2.450   3.873   5.050 -2.2677  2.9038 -0.0568
22760SOL     OW69720   6.735   2.033   0.348 -0.2485  0.5717  0.0811
22760SOL    HW169721   6.706   2.124   0.345  0.8388  0.9533  0.7040
22760SOL    HW269722   6.707   2.002   0.434  0.0055  0.5267  0.1464
22761SOL     OW69723   4.161   5.331   2.676  0.4118  0.5229 -0.6854
22761SOL    HW169724   4.138   5.319   2.584 -0.8553 -0.4300 -0.2732
22761SOL    HW269725   4.249   5.294   2.683 -0.3152 -1.4533 -1.1147
22762SOL     OW69726   1.575   5.828   3.227 -0.2764  0.3185  0.6717
22762SOL    HW169727   1.626   5.873   3.159 -1.6736  0.7188 -0.1585
22762SOL    HW269728   1.499   5.884   3.240 -1.0408 -0.7846  1.1075
22763SOL     OW69729   7.816   5.531   5.137 -0.5457  0.5127 -0.0739
22763SOL    HW169730   7.761   5.608   5.146 -1.1837 -0.0844  1.7700
22763SOL    HW269731   7.775   5.466   5.194  1.8301 -0.0917  1.0756
22764SOL     OW69732   4.579   7.779   4.104 -0.1861 -0.4563 -0.5354
22764SOL    HW169733   4.564   7.812   4.193 -1.5041 -1.9121 -0.1857
22764SOL    HW269734   4.574   7.857   4.049  2.3882  0.7741  0.7792
22765SOL     OW69735   7.671   6.362   6.836  0.0378  0.3594 -0.6087
22765SOL    HW169736   7.640   6.449   6.863 -0.3192  0.4041 -1.1513
22765SOL    HW269737   7.592   6.312   6.819  0.2480  0.0507 -0.6963
22766SOL     OW69738   5.665   3.071   1.267 -0.0429 -0.0998 -0.0395
22766SOL    HW169739   5.758   3.080   1.284 -0.1228 -0.0786  0.4130
22766SOL    HW269740   5.639   3.155   1.229 -0.3225  0.8012  2.0058
22767SOL     OW69741   2.507   6.877   4.202  0.1085  0.3146  0.3294
22767SOL    HW169742   2.519   6.818   4.277 -0.9947 -1.0651 -0.5310
22767SOL    HW269743   2.531   6.824   4.126  0.9860  1.6187 -0.3507
22768SOL     OW69744   7.426   4.979   7.082 -0.2560  1.0863  0.3935
22768SOL    HW169745   7.444   4.936   7.166  0.3952  0.0909 -0.2355
22768SOL    HW269746   7.511   4.979   7.036 -0.5410  1.8559 -0.1707
22769SOL     OW69747   4.551   7.869   4.361  0.1636 -0.3875  0.4008
22769SOL    HW169748   4.612   7.867   4.435 -0.5400 -0.2039  0.9971
22769SOL    HW269749   4.467   7.892   4.400 -0.4268 -1.2735 -0.3274
22770SOL     OW69750   3.013   0.534   7.876 -0.0769  0.4653 -0.7683
22770SOL    HW169751   3.056   0.477   7.812  0.1719 -2.2385  1.6130
22770SOL    HW269752   3.085   0.572   7.926 -0.2250 -1.8588  1.4001
22771SOL     OW69753   7.302   3.009   1.581 -0.0642 -0.4303 -0.1664
22771SOL    HW169754   7.348   3.091   1.562  0.5240 -0.8098 -0.3943
22771SOL    HW269755   7.242   3.032   1.652 -1.2837  0.6601 -1.4837
22772SOL     OW69756   2.730   7.930   1.508 -0.9981 -0.0984 -0.2452
22772SOL    HW169757   2.759   7.991   1.441  0.3146 -0.2255  0.1900
22772SOL    HW269758   2.692   7.986   1.576 -0.8494  0.1408 -0.3585
22773SOL     OW69759   5.608   6.408   3.356 -0.5510 -0.5083  0.2069
22773SOL    HW169760   5.696   6.381   3.328  0.7783  1.9746  1.6515
22773SOL    HW269761   5.563   6.432   3.275 -0.1572 -2.2975 -0.6092
22774SOL     OW69762   3.550   0.399   2.074 -0.5401 -0.0135  0.4587
22774SOL    HW169763   3.533   0.379   1.982 -0.6180  0.1002  0.4476
22774SOL    HW269764   3.592   0.485   2.072 -2.9757  1.2630  0.6883
22775SOL     OW69765   7.343   4.599   5.843 -0.4688 -0.0657 -0.3567
22775SOL    HW169766   7.301   4.685   5.850  1.1198  0.8306 -1.2262
22775SOL    HW269767   7.362   4.589   5.750 -1.7004 -1.9476 -0.4623
22776SOL     OW69768   7.768   4.607  11.830  0.1042 -0.0909 -0.2969
22776SOL    HW169769   7.809   4.691  11.850 -0.6750  0.4321 -0.8057
22776SOL    HW269770   7.764   4.561  11.914  2.4528 -0.5242 -0.3575
22777SOL     OW69771   4.750   5.758  10.631  0.3380 -0.6886  0.4234
22777SOL    HW169772   4.671   5.781  10.681 -0.8982 -1.1214 -1.2500
22777SOL    HW269773   4.743   5.663  10.617 -0.3924 -0.3358 -2.1608
22778SOL     OW69774   7.733   6.767   0.617  0.0370  0.1601  0.8596
22778SOL    HW169775   7.805   6.712   0.586 -0.1216 -0.4988  1.6129
22778SOL    HW269776   7.742   6.849   0.569  0.1407 -0.6150 -0.4686
22779SOL     OW69777   0.660   1.108   5.590  0.2794 -0.0584  0.1588
22779SOL    HW169778   0.643   1.034   5.532 -0.5023  0.7267 -0.6490
22779SOL    HW269779   0.694   1.176   5.533  0.9140  0.2534  0.8803
22780SOL     OW69780   7.353   7.438   0.629 -0.4546 -0.5026 -0.2189
22780SOL    HW169781   7.447   7.430   0.642 -0.2570  1.1836 -0.3657
22780SOL    HW269782   7.319   7.350   0.647  0.7714 -0.4521  3.0396
22781SOL     OW69783   5.460   5.216   8.902  0.5052  0.1533 -0.3491
22781SOL    HW169784   5.552   5.241   8.904  0.4074  0.5310  1.3595
22781SOL    HW269785   5.415   5.287   8.950 -0.3616 -1.0473  0.6885
22782SOL     OW69786   5.077   1.279   0.077 -0.0669 -0.2103 -0.6500
22782SOL    HW169787   5.054   1.358   0.028  1.1242  0.5349 -0.0407
22782SOL    HW269788   5.171   1.287   0.094 -0.3645 -0.5372  1.5208
22783SOL     OW69789   1.815   1.547   5.744 -0.2502  0.7095 -0.2913
22783SOL    HW169790   1.838   1.455   5.735  0.0565  0.6432  0.8853
22783SOL    HW269791   1.791   1.576   5.656 -0.3972 -0.5034 -0.6564
22784SOL     OW69792   1.445   4.442   7.925  0.1183  0.0938  0.2509
22784SOL    HW169793   1.469   4.517   7.870 -0.3326 -0.1590 -0.2848
22784SOL    HW269794   1.360   4.465   7.961  0.5906  0.4466  1.1960
22785SOL     OW69795   7.726   7.852   4.201  0.3640  0.7679  0.1205
22785SOL    HW169796   7.798   7.882   4.256  0.3269  0.7710  0.1676
22785SOL    HW269797   7.730   7.756   4.206  1.3123  0.7227 -1.0941
22786SOL     OW69798   2.830   0.337   8.151 -0.0014  0.0159  0.2203
22786SOL    HW169799   2.799   0.391   8.078 -0.3692  0.4685  0.6996
22786SOL    HW269800   2.760   0.344   8.217  0.6485  0.2131  0.9008
22787SOL     OW69801   3.901   2.469   3.086  0.1433  0.4461  0.2262
22787SOL    HW169802   3.880   2.376   3.091  1.6774  0.1593  2.4870
22787SOL    HW269803   3.832   2.511   3.138  0.9972  0.2457  1.5631
22788SOL     OW69804   5.433   1.337   5.691  0.5435  0.1610 -0.3235
22788SOL    HW169805   5.484   1.409   5.728 -2.1243  1.7454  0.5350
22788SOL    HW269806   5.364   1.380   5.640 -0.8866 -1.7908 -0.1470
22789SOL     OW69807   1.882   6.299   5.394  0.2301  0.2651 -0.4575
22789SOL    HW169808   1.882   6.382   5.346 -1.1086  0.9580  0.6493
22789SOL    HW269809   1.795   6.294   5.434  1.2057 -0.2724  1.8111
22790SOL     OW69810   0.117   5.217   8.111  0.1538  0.0260  0.3395
22790SOL    HW169811   0.069   5.166   8.047  0.9300  1.8776 -1.8467
22790SOL    HW269812   0.207   5.219   8.077  1.1041 -0.6523  2.6146
22791SOL     OW69813   5.987   6.990   2.035  0.3767 -0.1385 -0.1731
22791SOL    HW169814   5.960   6.976   1.945 -3.5865 -2.4802  1.1228
22791SOL    HW269815   6.043   6.914   2.055  1.2418  0.3730 -0.5881
22792SOL     OW69816   5.315   0.759  11.880 -0.1332  0.1943  0.2730
22792SOL    HW169817   5.257   0.785  11.951  0.3489  0.4809  0.5675
22792SOL    HW269818   5.261   0.705  11.823 -0.2303 -0.9438  1.4112
22793SOL     OW69819   4.000   6.113   2.881  0.3031  0.0799 -0.7519
22793SOL    HW169820   3.967   6.056   2.812 -2.2559 -1.0679  1.2766
22793SOL    HW269821   3.959   6.198   2.864 -0.4362 -0.2371 -0.5583
22794SOL     OW69822   7.510   0.402   1.325  0.6954 -0.2813 -0.3398
22794SOL    HW169823   7.485   0.353   1.404  0.4279  2.1798  1.1994
22794SOL    HW269824   7.457   0.363   1.255  0.5469 -2.1825  0.7539
22795SOL     OW69825   3.172   6.944  12.015 -0.1721 -0.0973  0.4386
22795SOL    HW169826   3.256   6.986  12.035  0.4718 -1.8686  1.7185
22795SOL    HW269827   3.191   6.890  11.938 -0.2713 -0.1256  0.4345
22796SOL     OW69828   1.160   7.708   3.856 -0.0377  0.2359  0.0299
22796SOL    HW169829   1.148   7.775   3.922  0.0389  0.4244 -0.1472
22796SOL    HW269830   1.239   7.662   3.883  0.4712  0.8551 -0.3910
22797SOL     OW69831   6.953   3.687   2.490 -0.2181  0.6707 -0.1943
22797SOL    HW169832   6.988   3.727   2.411 -1.3230 -0.1082 -1.1213
22797SOL    HW269833   6.900   3.755   2.530  1.9990  1.7559  1.0545
22798SOL     OW69834   4.531   4.228  11.130  0.1089  0.3018 -0.0089
22798SOL    HW169835   4.513   4.317  11.100 -1.0026  0.2946  0.6030
22798SOL    HW269836   4.487   4.172  11.066 -0.2962  0.2274  0.3347
22799SOL     OW69837   6.029   0.538   3.705  0.2569  0.4167  0.0326
22799SOL    HW169838   5.985   0.580   3.779  2.3720  2.1474  0.4083
22799SOL    HW269839   5.965   0.541   3.634 -1.4906 -0.4632  1.4826
22800SOL     OW69840   7.693   0.649   1.097  0.3030  0.3032 -0.4019
22800SOL    HW169841   7.601   0.660   1.073  0.6267  2.0303 -0.9346
22800SOL    HW269842   7.712   0.557   1.075 -0.8046  0.4130 -2.0387
22801SOL     OW69843   3.028   4.045   0.035  0.0221  0.6710 -0.0802
22801SOL    HW169844   2.987   4.014   0.115  0.9630  1.7295  0.8480
22801SOL    HW269845   3.088   3.974   0.010 -0.0411  0.4666  0.3415
22802SOL     OW69846   7.650   7.765   7.594 -0.3700  0.0129 -0.1843
22802SOL    HW169847   7.644   7.782   7.500 -0.1284  0.6968 -0.0827
22802SOL    HW269848   7.643   7.852   7.635  2.0382  0.0576  0.2985
22803SOL     OW69849   3.288   2.555  10.679 -0.0214  0.1312 -0.3735
22803SOL    HW169850   3.217   2.497  10.652 -0.7058  2.0587 -3.1277
22803SOL    HW269851   3.344   2.564  10.602  1.0401  1.7223  0.5056
22804SOL     OW69852   6.950   3.145   7.421  0.1658  0.1794 -0.4084
22804SOL    HW169853   6.946   3.074   7.357 -0.2643  0.3563 -0.5838
22804SOL    HW269854   7.000   3.109   7.494  2.9199  0.8055 -1.8732
22805SOL     OW69855   4.139   3.561   1.763 -0.6874  0.0247 -0.1265
22805SOL    HW169856   4.089   3.590   1.839 -0.3051 -1.3878  0.7018
22805SOL    HW269857   4.098   3.606   1.689 -1.8229  0.5239  0.7739
22806SOL     OW69858   3.213   4.984   7.668 -0.3270  0.3018 -0.0823
22806SOL    HW169859   3.179   4.942   7.747  1.3686 -0.5636  0.2238
22806SOL    HW269860   3.274   4.920   7.631 -0.1066  1.2240 -1.3848
22807SOL     OW69861   1.896   7.555   4.082  0.1448  0.1720  0.0667
22807SOL    HW169862   1.913   7.587   3.994 -0.4696  0.8296  0.1732
22807SOL    HW269863   1.910   7.461   4.077 -1.1411  0.0095 -1.0749
22808SOL     OW69864   4.455   4.039  10.293  0.4350 -0.3062  0.1232
22808SOL    HW169865   4.550   4.038  10.283  0.2602  0.1084 -2.2977
22808SOL    HW269866   4.440   4.056  10.386  2.7108 -0.6072  0.5923
22809SOL     OW69867   4.952   4.272   7.168 -0.0552 -0.1060 -0.2028
22809SOL    HW169868   4.958   4.317   7.083 -0.1010  0.6210  0.1749
22809SOL    HW269869   4.859   4.249   7.176  0.5162 -3.9931 -2.2659
22810SOL     OW69870   3.944   5.174   6.733 -0.0950  0.5611  0.2257
22810SOL    HW169871   3.898   5.159   6.651  1.6478  3.8016 -1.5549
22810SOL    HW269872   3.886   5.140   6.800 -1.5321 -2.4146 -2.2884
22811SOL     OW69873   0.273   4.798   1.794  0.0105  0.1495 -0.2885
22811SOL    HW169874   0.218   4.848   1.733 -0.4938 -1.1746 -0.9557
22811SOL    HW269875   0.262   4.843   1.878 -1.9196  0.0807 -0.4519
22812SOL     OW69876   5.069   5.531  11.108 -0.1021 -0.0028 -0.6994
22812SOL    HW169877   5.120   5.455  11.081 -0.8065 -0.5257 -0.5984
22812SOL    HW269878   5.020   5.557  11.030 -1.2743 -0.8118 -0.2559
22813SOL     OW69879   0.177   5.976  12.406 -0.2182  0.1099  0.5843
22813SOL    HW169880   0.191   6.062  12.367  0.1844  1.2141  2.9246
22813SOL    HW269881   0.249   5.922  12.373  0.1930  1.0184 -0.0320
22814SOL     OW69882   5.358   0.885   4.725  0.0201 -0.6301  0.2775
22814SOL    HW169883   5.338   0.977   4.740 -1.1096 -0.7059 -0.6224
22814SOL    HW269884   5.442   0.871   4.769  0.0340  0.7311  0.7253
22815SOL     OW69885   0.523   2.771   7.543  0.0741 -0.7902  0.1999
22815SOL    HW169886   0.437   2.731   7.552  0.6332 -2.1938 -0.3138
22815SOL    HW269887   0.580   2.699   7.514  1.3308  0.1894  0.1295
22816SOL     OW69888   4.407   2.435   5.295 -0.4895 -0.1683 -0.2704
22816SOL    HW169889   4.404   2.507   5.358 -1.5962 -0.2979 -0.1535
22816SOL    HW269890   4.490   2.447   5.249 -0.1936  0.5919  0.4330
22817SOL     OW69891   0.077   7.463   0.748 -0.3666  0.5119 -0.1263
22817SOL    HW169892   0.134   7.515   0.692 -0.1187 -2.1364 -2.5519
22817SOL    HW269893  -0.011   7.495   0.730 -0.1455  0.7214 -0.8528
22818SOL     OW69894   3.371   2.597   4.425  0.0114  0.3843  0.3078
22818SOL    HW169895   3.416   2.574   4.343  0.5914 -2.2600  1.2594
22818SOL    HW269896   3.383   2.691   4.434  3.6876  0.1312 -0.5103
22819SOL     OW69897   6.651   5.400   1.559 -0.6217 -0.2664  0.3166
22819SOL    HW169898   6.570   5.366   1.521 -0.7181  0.1127  0.1826
22819SOL    HW269899   6.624   5.448   1.636 -0.6912  1.1626 -0.5613
22820SOL     OW69900   5.028   7.354  10.592 -0.0399 -0.0202  0.0321
22820SOL    HW169901   4.969   7.429  10.594  0.4926  0.4128 -0.1036
22820SOL    HW269902   5.028   7.324  10.501  0.8133  0.6900 -0.2118
22821SOL     OW69903   6.561   3.842   0.731 -0.5234 -0.7698 -0.9068
22821SOL    HW169904   6.558   3.808   0.642 -0.1311 -1.3230 -0.7133
22821SOL    HW269905   6.470   3.844   0.760 -1.1790  2.8389 -2.5690
22822SOL     OW69906   1.765   0.290   5.072  0.4193 -0.3126  0.4686
22822SOL    HW169907   1.764   0.271   4.979 -0.9077 -1.3353  0.6532
22822SOL    HW269908   1.815   0.371   5.080 -1.5984  1.2392 -1.4066
22823SOL     OW69909   7.049   3.428   7.347 -0.0454  0.0401  0.3006
22823SOL    HW169910   7.066   3.424   7.254 -0.5811 -1.3072  0.2438
22823SOL    HW269911   7.042   3.337   7.375  0.5257  0.4107  1.7370
22824SOL     OW69912   0.864   6.246   1.966 -0.0674 -0.4895 -0.0978
22824SOL    HW169913   0.866   6.152   1.987  1.3368 -0.2519  0.9830
22824SOL    HW269914   0.862   6.249   1.871  1.5808 -1.6577 -0.2203
22825SOL     OW69915   3.262   4.778   3.565 -0.4048  0.2833 -0.5280
22825SOL    HW169916   3.241   4.838   3.637  1.5212 -0.5600  0.8213
22825SOL    HW269917   3.356   4.788   3.552 -0.5685 -0.1810 -2.4364
22826SOL     OW69918   6.031   0.962   5.972 -0.1096 -0.8329 -0.2673
22826SOL    HW169919   5.988   0.877   5.989 -0.9942 -0.2076  0.7734
22826SOL    HW269920   6.118   0.939   5.940  0.7552 -2.2034  2.6989
22827SOL     OW69921   6.118   0.752   7.394  0.3897  0.7020  0.7808
22827SOL    HW169922   6.058   0.722   7.462  0.2691 -0.5346  0.1499
22827SOL    HW269923   6.163   0.827   7.433 -1.6526  1.7608  1.2175
22828SOL     OW69924   6.682   1.621   4.760  0.2047 -0.0329  0.1737
22828SOL    HW169925   6.635   1.598   4.840 -1.7976 -0.4532 -1.0596
22828SOL    HW269926   6.667   1.547   4.701  1.1829  0.5135 -0.8027
22829SOL     OW69927   5.235   3.355  11.753 -0.1213  0.6145  0.9101
22829SOL    HW169928   5.315   3.393  11.716 -0.2401  0.3174  0.3368
22829SOL    HW269929   5.222   3.274  11.703 -0.4371  0.3463  1.4222
22830SOL     OW69930   7.595   1.680   4.102  0.3390  0.3696  0.2725
22830SOL    HW169931   7.502   1.691   4.084  0.1275 -1.2785  0.1447
22830SOL    HW269932   7.639   1.714   4.024 -0.3491 -1.9903 -1.2448
22831SOL     OW69933   7.849   2.002   3.744  0.4464 -0.1771  0.2129
22831SOL    HW169934   7.820   1.941   3.811 -0.3933  1.9435  1.9014
22831SOL    HW269935   7.802   2.083   3.763  2.0281  1.2435 -1.4852
22832SOL     OW69936   7.899   2.645   7.610  0.4579 -0.2652  0.5757
22832SOL    HW169937   7.881   2.723   7.664 -1.4237 -0.1992 -0.0972
22832SOL    HW269938   7.816   2.625   7.568  1.6773 -0.7964 -1.7165
22833SOL     OW69939   0.006   7.142   6.368  0.0050  0.1520 -0.2367
22833SOL    HW169940   0.054   7.063   6.341 -0.4000 -0.2083  0.0670
22833SOL    HW269941   0.073   7.204   6.395  0.2970 -0.9336  1.8063
22834SOL     OW69942   6.064   2.251   3.594 -0.4897 -0.9286 -0.3619
22834SOL    HW169943   6.028   2.165   3.575 -0.0221 -1.7528  2.1527
22834SOL    HW269944   6.094   2.246   3.684 -0.9969  2.0625  0.1029
22835SOL     OW69945   3.975   7.736   2.139  0.4912  0.0339  0.1160
22835SOL    HW169946   3.951   7.644   2.149 -1.3355  0.4747  0.2925
22835SOL    HW269947   3.945   7.759   2.051  0.0032  0.7003  0.4478
22836SOL     OW69948   2.361   6.548   4.060 -0.2829 -0.2174 -0.1192
22836SOL    HW169949   2.362   6.490   4.137 -0.3052 -0.6048 -0.4044
22836SOL    HW269950   2.402   6.495   3.991  0.3079  0.3548 -0.2145
22837SOL     OW69951   1.930   2.627   6.273  0.2895 -0.5829 -0.1912
22837SOL    HW169952   1.905   2.544   6.234  0.0178 -0.6795  0.1820
22837SOL    HW269953   2.013   2.649   6.231  2.5825 -3.0937  2.5484
22838SOL     OW69954   2.836   3.792   8.476 -0.2406 -0.1164  0.3450
22838SOL    HW169955   2.800   3.734   8.544  0.9779  1.3228  2.3317
22838SOL    HW269956   2.797   3.877   8.496  2.6270  1.0622  1.3636
22839SOL     OW69957   7.847   1.427  10.841  0.2429  0.4556  0.3839
22839SOL    HW169958   7.814   1.451  10.927 -0.7902 -0.4735  0.2694
22839SOL    HW269959   7.813   1.339  10.826 -0.8443  1.1519 -1.5887
22840SOL     OW69960   0.031   4.908   0.608 -0.3023 -0.1714  0.0732
22840SOL    HW169961   0.117   4.950   0.610 -0.6233  0.4867  1.4765
22840SOL    HW269962  -0.029   4.978   0.582 -0.8211  0.2825  2.2678
22841SOL     OW69963   1.335   0.849  12.427 -0.1380  0.0155 -0.7401
22841SOL    HW169964   1.243   0.858  12.405 -0.3847 -0.0215  0.2146
22841SOL    HW269965   1.336   0.794  12.506  0.6695  0.3108 -0.5289
22842SOL     OW69966   1.153   6.987  11.723 -0.3443 -0.4882  0.7299
22842SOL    HW169967   1.081   6.956  11.778 -0.1075  3.3926  3.6572
22842SOL    HW269968   1.113   7.054  11.667  0.3341 -1.0131 -0.4166
22843SOL     OW69969   6.462   4.073   6.805 -0.4172  0.3662  0.0487
22843SOL    HW169970   6.516   4.097   6.730 -0.0291  0.2847  0.3012
22843SOL    HW269971   6.481   3.981   6.821 -0.6314  0.3364  0.1374
22844SOL     OW69972   2.311   7.537   5.895  0.8264  0.3086  0.2837
22844SOL    HW169973   2.334   7.540   5.802 -1.4533  1.1364 -0.3080
22844SOL    HW269974   2.265   7.454   5.906 -0.1110  0.8323  0.3593
22845SOL     OW69975   7.152   5.197   6.679 -0.0241 -0.2202 -0.0060
22845SOL    HW169976   7.245   5.190   6.660 -0.1508 -0.5694 -0.5298
22845SOL    HW269977   7.137   5.291   6.690  0.4911 -0.2098  0.6644
22846SOL     OW69978   1.855   2.405   9.137  0.2225  0.6699 -0.1844
22846SOL    HW169979   1.865   2.336   9.072 -0.7152  0.9570 -0.6516
22846SOL    HW269980   1.890   2.367   9.218  1.8698  0.4929 -0.9461
22847SOL     OW69981   5.314   4.561   6.400 -0.0050 -0.2301  0.0712
22847SOL    HW169982   5.260   4.595   6.328  0.1835 -0.7377 -0.3210
22847SOL    HW269983   5.400   4.546   6.360  0.2060 -0.1772  0.4978
22848SOL     OW69984   2.105   7.292  11.569 -0.1404 -0.6055 -0.5314
22848SOL    HW169985   2.175   7.345  11.530 -0.8636  1.7374  1.1293
22848SOL    HW269986   2.151   7.220  11.612  1.1578  0.2366 -0.4552
22849SOL     OW69987   1.589   2.312   2.225 -0.4496 -0.0638  0.3362
22849SOL    HW169988   1.656   2.369   2.188 -1.0530  1.4312  1.4086
22849SOL    HW269989   1.508   2.339   2.182 -0.8073  0.1934  1.1422
22850SOL     OW69990   0.644   3.790   9.461 -0.5787 -0.1690 -0.1953
22850SOL    HW169991   0.619   3.770   9.552  0.6705 -1.1528 -0.0253
22850SOL    HW269992   0.566   3.828   9.422 -1.0518  0.5782  1.3860
22851SOL     OW69993   2.903   3.389  10.624  0.2284  0.3079  0.1058
22851SOL    HW169994   2.859   3.453  10.679  1.7028 -0.8699  2.8350
22851SOL    HW269995   2.839   3.319  10.612  0.3657 -0.1420  1.7506
22852SOL     OW69996   3.931   2.788   2.926 -0.2147 -0.4006 -0.0006
22852SOL    HW169997   4.022   2.809   2.950  0.0251  0.7812 -1.7533
22852SOL    HW269998   3.935   2.698   2.896  0.2688 -0.5262  0.4130
22853SOL     OW69999   7.520   4.888   4.823  0.1438 -0.4090 -0.2449
22853SOL    HW170000   7.477   4.937   4.753 -0.9143 -0.4476  0.3467
22853SOL    HW270001   7.476   4.917   4.903  0.7980 -0.9328  0.3217
22854SOL     OW70002   5.514   5.043   9.946  0.2726 -0.5989 -0.2163
22854SOL    HW170003   5.511   5.137   9.925  1.9322 -0.2445  0.9358
22854SOL    HW270004   5.475   5.000   9.870  1.3236  0.9084 -1.6845
22855SOL     OW70005   3.280   6.719   3.217 -0.0197  0.2472 -0.0897
22855SOL    HW170006   3.284   6.624   3.211  0.7936  0.1056  2.0850
22855SOL    HW270007   3.203   6.743   3.164 -0.7848 -1.6682  0.0774
22856SOL     OW70008   5.442   7.895   8.872 -0.2811 -0.5755 -0.3676
22856SOL    HW170009   5.415   7.920   8.961  0.2225  0.8994 -0.6038
22856SOL    HW270010   5.500   7.966   8.844 -1.3768 -0.3959 -2.3415
22857SOL     OW70011   3.526   3.233   5.963 -0.2609 -0.3291 -0.3695
22857SOL    HW170012   3.509   3.265   6.052 -0.7394 -0.4008 -0.4296
22857SOL    HW270013   3.588   3.296   5.926 -0.2196 -0.1840 -0.0535
22858SOL     OW70014   0.700   7.302   5.257 -0.2135  0.3139 -0.2950
22858SOL    HW170015   0.760   7.342   5.194 -0.0335  1.3041  0.4767
22858SOL    HW270016   0.751   7.295   5.337 -0.4674 -0.8528 -0.2198
22859SOL     OW70017   5.085   5.195   0.832  0.3104 -0.0510 -0.2261
22859SOL    HW170018   5.113   5.129   0.896  1.2662 -0.1934 -0.7654
22859SOL    HW270019   5.108   5.279   0.872  0.9849 -0.1430 -0.3975
22860SOL     OW70020   0.759   2.393   1.390 -0.0474  0.4214 -0.0834
22860SOL    HW170021   0.816   2.327   1.351 -0.1264  0.9165 -1.0428
22860SOL    HW270022   0.686   2.343   1.427  0.6484 -0.1546  0.5433
22861SOL     OW70023   0.874   0.889   1.192 -0.1234 -0.1288 -0.1140
22861SOL    HW170024   0.808   0.887   1.123 -1.2693  1.3697  0.8916
22861SOL    HW270025   0.854   0.812   1.246 -0.6725 -0.0194 -0.1560
22862SOL     OW70026   0.840   4.225   8.892  0.5629  0.5250  0.0042
22862SOL    HW170027   0.810   4.177   8.969 -2.4853  2.4288  0.1777
22862SOL    HW270028   0.833   4.162   8.820  1.5302 -0.6919  0.9349
22863SOL     OW70029   4.741   0.924   5.489 -0.2627 -0.0252 -0.1815
22863SOL    HW170030   4.667   0.900   5.434 -0.3472 -0.5604  0.1547
22863SOL    HW270031   4.800   0.973   5.431 -1.9672  2.5668  0.1249
22864SOL     OW70032   2.922   4.882   2.397  0.3985  0.5417  0.2098
22864SOL    HW170033   2.920   4.909   2.489  0.8267 -0.2821  0.4778
22864SOL    HW270034   2.990   4.815   2.394 -0.1095  0.0497 -0.5683
22865SOL     OW70035   1.679   5.498   0.572  0.3890 -1.0580 -0.2550
22865SOL    HW170036   1.743   5.560   0.607 -1.5000  1.1297 -0.4667
22865SOL    HW270037   1.602   5.511   0.627 -1.1791 -0.7174 -2.4301
22866SOL     OW70038   1.886   1.519  11.776 -0.2995 -0.2105  0.5913
22866SOL    HW170039   1.879   1.442  11.833 -0.6862 -1.5850 -1.1880
22866SOL    HW270040   1.980   1.539  11.774 -0.3386  0.2265  2.1113
22867SOL     OW70041   3.928   1.699   8.621 -0.0504  0.3013 -0.1256
22867SOL    HW170042   3.956   1.640   8.551  1.5610  0.7413  0.1144
22867SOL    HW270043   3.937   1.647   8.701  1.3817  0.8346  0.0876
22868SOL     OW70044   1.544   6.608   1.157 -0.0407 -0.4699 -0.4483
22868SOL    HW170045   1.573   6.538   1.098 -1.7774  0.7240 -2.9073
22868SOL    HW270046   1.449   6.612   1.145 -0.1168  1.5599  0.4320
22869SOL     OW70047   3.626   6.108   9.471 -0.1371 -0.7564  0.1469
22869SOL    HW170048   3.557   6.050   9.503 -0.1168 -1.1840 -0.5771
22869SOL    HW270049   3.677   6.054   9.411  0.9231 -0.4874  0.7768
22870SOL     OW70050   5.346   0.434   5.857 -0.0130 -0.7417  0.4182
22870SOL    HW170051   5.435   0.439   5.891  0.2016 -1.8424  0.0398
22870SOL    HW270052   5.320   0.343   5.870  0.0863 -1.2535 -2.3639
22871SOL     OW70053   7.882   3.567   9.134 -0.7384 -0.1719 -0.0408
22871SOL    HW170054   7.846   3.508   9.201 -2.2118  1.2921  0.5336
22871SOL    HW270055   7.945   3.621   9.182  0.2084 -0.8888 -0.4489
22872SOL     OW70056   0.571   4.818  11.098 -0.2883 -0.2320 -0.6667
22872SOL    HW170057   0.635   4.873  11.142 -0.9654 -0.1141  0.1951
22872SOL    HW270058   0.614   4.732  11.091 -0.4950 -0.5052  1.0585
22873SOL     OW70059   3.120   4.348   8.490  0.2022  0.1382  0.1165
22873SOL    HW170060   3.197   4.312   8.446  1.1587  1.1376  0.9267
22873SOL    HW270061   3.070   4.271   8.518  1.4270 -0.5426  0.4779
22874SOL     OW70062   1.633   2.995   5.599 -0.1583  0.8495  0.2363
22874SOL    HW170063   1.699   3.043   5.548 -0.5743  0.9622 -0.1949
22874SOL    HW270064   1.552   3.043   5.585 -0.1596  1.2610  1.5323
22875SOL     OW70065   1.258   6.666   0.797 -0.6306  0.0571 -0.1803
22875SOL    HW170066   1.307   6.588   0.773 -0.0731  0.1189  0.7036
22875SOL    HW270067   1.288   6.734   0.737  0.4323  0.1101  0.3864
22876SOL     OW70068   6.399   5.734   3.181  0.3488 -0.4832 -0.3207
22876SOL    HW170069   6.373   5.791   3.109  0.1041  0.3142  0.3774
22876SOL    HW270070   6.469   5.782   3.226 -0.3315 -0.3962  0.6792
22877SOL     OW70071   1.267   4.613   3.760 -0.3508 -0.2263 -0.0508
22877SOL    HW170072   1.285   4.660   3.678 -0.4125  0.5041  0.3516
22877SOL    HW270073   1.271   4.520   3.735 -0.3069 -0.0147 -0.8687
22878SOL     OW70074   2.444   7.651  12.419  0.3349  0.4895  0.2866
22878SOL    HW170075   2.470   7.722  12.360  0.7935 -0.6407 -0.9463
22878SOL    HW270076   2.351   7.665  12.435 -0.0596  0.3089 -1.5425
22879SOL     OW70077   0.232   1.253   3.741 -0.3842  0.1684  0.0695
22879SOL    HW170078   0.323   1.280   3.745 -0.6371  1.4023 -1.5328
22879SOL    HW270079   0.230   1.183   3.677 -0.5614  0.1349  0.1111
22880SOL     OW70080   4.152   6.324   3.000 -0.3325  0.3707  0.3614
22880SOL    HW170081   4.068   6.301   3.040  0.4248  0.4049  2.0485
22880SOL    HW270082   4.217   6.296   3.064  0.9304  0.7581 -0.7222
22881SOL     OW70083   5.607   2.596   3.257  0.7810 -0.0788  0.0648
22881SOL    HW170084   5.543   2.535   3.223  0.1604  1.3960 -1.6149
22881SOL    HW270085   5.680   2.591   3.195  0.2237  1.6529 -0.8160
22882SOL     OW70086   1.484   0.485   2.785 -0.3077 -0.0858 -0.2167
22882SOL    HW170087   1.573   0.493   2.752 -0.0811  1.2843  0.6324
22882SOL    HW270088   1.451   0.575   2.785 -1.1282 -0.3691  0.9668
22883SOL     OW70089   1.088   2.165  11.214  0.0050  0.1500 -0.2586
22883SOL    HW170090   1.002   2.143  11.179  0.7049 -1.1644 -1.2177
22883SOL    HW270091   1.090   2.125  11.301  0.2322 -1.2518 -0.8874
22884SOL     OW70092   2.533   4.107   5.781 -0.3435  0.2704  0.3339
22884SOL    HW170093   2.457   4.080   5.833 -0.0713 -0.0627  0.5687
22884SOL    HW270094   2.515   4.076   5.693  0.0176 -0.8255  0.6223
22885SOL     OW70095   2.523   2.751   6.952  0.0606  0.5642 -0.2496
22885SOL    HW170096   2.552   2.661   6.933 -0.6662  0.2945 -0.0864
22885SOL    HW270097   2.591   2.786   7.010 -0.7700 -0.6533  1.5539
22886SOL     OW70098   6.988   6.439  11.026  0.2163  0.0304  0.1521
22886SOL    HW170099   6.919   6.384  10.987 -0.8521 -0.0794  2.0553
22886SOL    HW270100   6.973   6.526  10.988 -1.0199  0.0161  0.5630
22887SOL     OW70101   5.603   4.934   5.170  0.4802 -0.0914 -0.6126
22887SOL    HW170102   5.648   4.865   5.219 -0.4048  0.1400  0.5532
22887SOL    HW270103   5.600   5.009   5.230 -3.5303 -0.8148  0.3630
22888SOL     OW70104   1.552   1.802   0.779 -0.2545  0.5073  0.2727
22888SOL    HW170105   1.568   1.825   0.688 -0.7727  0.7381  0.2349
22888SOL    HW270106   1.635   1.818   0.823  0.0851  0.1116 -0.2117
22889SOL     OW70107   3.084   0.759   0.960 -0.1075 -0.0701  0.6222
22889SOL    HW170108   3.070   0.837   0.906  1.9213  2.5979  3.5996
22889SOL    HW270109   3.171   0.728   0.936 -0.2779 -0.4752  0.5230
22890SOL     OW70110   5.598   2.925   8.223  0.1035  0.1655 -0.6105
22890SOL    HW170111   5.664   2.993   8.211  1.9310 -1.0582  1.5975
22890SOL    HW270112   5.534   2.964   8.283  0.3544  0.4180 -0.5072
22891SOL     OW70113   4.090   0.043   2.646 -0.6406  0.1061  0.1382
22891SOL    HW170114   4.158  -0.017   2.677 -0.5003  0.2455  0.0966
22891SOL    HW270115   4.035  -0.011   2.590 -1.7943 -0.5544  1.8264
22892SOL     OW70116   2.953   3.160   5.901  0.4550 -0.3249 -0.6283
22892SOL    HW170117   2.946   3.250   5.930  0.4977  0.6209 -3.2492
22892SOL    HW270118   3.038   3.155   5.858  0.7963 -1.8589  0.1650
22893SOL     OW70119   3.917   2.009   2.096  0.0846 -0.2515 -0.1731
22893SOL    HW170120   3.834   2.047   2.125  0.1844  0.6463 -1.0124
22893SOL    HW270121   3.934   2.052   2.012  0.1307 -2.2481 -1.2447
22894SOL     OW70122   3.754   5.998  11.382  0.3391  0.1183 -0.1598
22894SOL    HW170123   3.821   5.991  11.450  0.0317  0.2131  0.1560
22894SOL    HW270124   3.800   6.034  11.306  0.3672  1.4318  0.4571
22895SOL     OW70125   7.026   2.926  10.221  0.0765 -0.4383 -0.4005
22895SOL    HW170126   7.027   2.832  10.204  2.4619 -0.7405  0.9850
22895SOL    HW270127   6.934   2.946  10.240 -0.3897 -2.6130 -0.1306
22896SOL     OW70128   0.245   6.296   0.767 -0.2508  0.1065 -0.0186
22896SOL    HW170129   0.334   6.261   0.759  0.5189  1.9251 -0.0184
22896SOL    HW270130   0.202   6.272   0.685  0.7094  0.4228 -0.6297
22897SOL     OW70131   2.028   0.689   0.224 -0.0998 -0.1431  0.0750
22897SOL    HW170132   2.048   0.603   0.187 -0.2776  0.0239 -0.4133
22897SOL    HW270133   2.018   0.747   0.148  1.6205  0.6726  0.4011
22898SOL     OW70134   3.892   6.598   4.133 -0.1403  0.2506 -0.1571
22898SOL    HW170135   3.978   6.575   4.168  0.1192  2.1813  0.6171
22898SOL    HW270136   3.910   6.646   4.053 -0.6773 -2.2611 -1.9010
22899SOL     OW70137   5.219   2.264  10.751  0.2782  0.0112 -0.1346
22899SOL    HW170138   5.169   2.199  10.702 -0.6312 -1.0203  2.0288
22899SOL    HW270139   5.153   2.317  10.796  1.0690  0.8117  0.1338
22900SOL     OW70140   5.444   4.319   3.281 -0.1872 -0.2807  0.3418
22900SOL    HW170141   5.369   4.352   3.231 -0.6273 -2.0207 -0.2062
22900SOL    HW270142   5.468   4.392   3.338 -0.0852  1.5385 -1.9113
22901SOL     OW70143   5.139   0.131  12.137 -0.5773  0.1358 -0.0464
22901SOL    HW170144   5.046   0.147  12.155 -0.5253 -0.3792  0.7338
22901SOL    HW270145   5.170   0.082  12.214  0.1177 -0.4876 -0.7130
22902SOL     OW70146   0.652   5.051  10.346 -0.3780 -0.0742  0.1135
22902SOL    HW170147   0.657   4.995  10.424 -0.6479  0.0333  0.2097
22902SOL    HW270148   0.743   5.073  10.326 -0.3448  0.4300  0.7869
22903SOL     OW70149   0.706   6.953   4.026  0.1184 -1.2063  0.2142
22903SOL    HW170150   0.655   7.032   4.008  0.5430 -0.7317  1.0261
22903SOL    HW270151   0.660   6.910   4.097  0.6112 -0.9923  0.6700
22904SOL     OW70152   1.779   2.806   5.106  0.4848  0.1590 -0.4886
22904SOL    HW170153   1.722   2.806   5.183  1.3750 -0.2767  0.1903
22904SOL    HW270154   1.863   2.772   5.138  1.5809  2.1102 -1.1159
22905SOL     OW70155   1.583   0.495   8.222  0.3490 -0.2863  0.1908
22905SOL    HW170156   1.615   0.578   8.188  0.4149 -0.6249 -0.5856
22905SOL    HW270157   1.526   0.461   8.153  0.3900 -0.9253  0.4660
22906SOL     OW70158   3.743   0.803  10.418 -0.0827  0.5525  0.4512
22906SOL    HW170159   3.717   0.894  10.430  1.3262  0.8133  1.7521
22906SOL    HW270160   3.701   0.777  10.335 -1.0119  2.1666  0.3767
22907SOL     OW70161   5.754   4.512   9.799  0.6789  0.5012  0.3697
22907SOL    HW170162   5.662   4.488   9.807  0.8636 -0.9780 -1.2060
22907SOL    HW270163   5.771   4.568   9.874 -1.4073  0.5309  0.8901
22908SOL     OW70164   1.509   0.596   2.404 -0.1024 -0.5122 -0.2103
22908SOL    HW170165   1.537   0.505   2.398 -1.3288 -0.9409  0.3029
22908SOL    HW270166   1.525   0.632   2.317 -2.9655 -2.2475 -1.5894
22909SOL     OW70167   1.516   5.742   6.479  0.2928  0.3668  0.1407
22909SOL    HW170168   1.512   5.684   6.555  0.6810  1.0618  0.7070
22909SOL    HW270169   1.427   5.743   6.445 -0.0693  0.6318  1.0536
22910SOL     OW70170   0.734   4.068   8.698 -0.3532  0.2146 -0.1392
22910SOL    HW170171   0.791   4.037   8.628 -0.9080  0.1968 -0.5823
22910SOL    HW270172   0.668   3.999   8.709 -0.1305  0.1007  0.5709
22911SOL     OW70173   0.740   7.945   6.811  0.0414 -0.0210  0.1726
22911SOL    HW170174   0.740   8.015   6.746 -1.9843 -0.2084 -0.1106
22911SOL    HW270175   0.725   7.865   6.761 -0.3460 -0.3161  0.7460
22912SOL     OW70176   1.747   1.054   7.912  0.0834  0.1701 -0.3319
22912SOL    HW170177   1.835   1.019   7.901  0.8688  1.1683  2.0064
22912SOL    HW270178   1.739   1.122   7.845  0.7327 -0.5260 -1.1346
22913SOL     OW70179   5.875   0.449   4.786 -0.6407  0.3559  0.6392
22913SOL    HW170180   5.959   0.424   4.825  0.6739  0.6067 -1.8570
22913SOL    HW270181   5.897   0.515   4.720 -2.7047 -0.1179 -0.6204
22914SOL     OW70182   3.506   4.010   2.461 -0.4131 -0.2182 -0.2626
22914SOL    HW170183   3.502   4.090   2.408  0.7398  0.0625  0.0472
22914SOL    HW270184   3.599   3.990   2.466 -0.7643 -2.8169 -2.1469
22915SOL     OW70185   3.501   5.270   2.882 -0.1259 -0.0010 -0.8259
22915SOL    HW170186   3.481   5.349   2.831  0.6587  0.7772  0.0235
22915SOL    HW270187   3.584   5.290   2.924 -0.6674 -0.6833  0.6160
22916SOL     OW70188   7.115   2.703   4.925  0.4080 -0.1353  0.4977
22916SOL    HW170189   7.062   2.651   4.984  0.7197 -0.4015  0.5435
22916SOL    HW270190   7.204   2.698   4.960  0.8864 -1.5501 -0.8191
22917SOL     OW70191   0.672   0.042   3.113  0.1033 -0.1340 -0.0848
22917SOL    HW170192   0.656   0.136   3.102 -1.1173 -0.4051 -0.8402
22917SOL    HW270193   0.713   0.035   3.199 -1.2513  0.9463  0.6938
22918SOL     OW70194   0.521   6.192   2.545 -0.7516 -0.0975  0.4037
22918SOL    HW170195   0.460   6.202   2.619 -0.4274  0.1279  0.6444
22918SOL    HW270196   0.580   6.266   2.554 -1.9219  1.1072 -1.2504
22919SOL     OW70197   2.221   6.318   8.325  0.8819 -0.0191  0.1814
22919SOL    HW170198   2.177   6.313   8.240  0.4792 -0.1584  0.3961
22919SOL    HW270199   2.223   6.411   8.346  1.7968  0.1126 -0.3965
22920SOL     OW70200   3.181   3.963   8.775  0.3425 -0.5213 -0.4444
22920SOL    HW170201   3.184   3.980   8.869 -0.5072 -0.8315 -0.3590
22920SOL    HW270202   3.257   4.011   8.740 -0.2095  0.8930  0.1939
22921SOL     OW70203   7.078   2.794   9.837  0.0882  0.1933 -0.2146
22921SOL    HW170204   7.116   2.706   9.825 -0.0780  0.3162 -2.0037
22921SOL    HW270205   7.147   2.843   9.882  0.6659 -0.5325 -0.2764
22922SOL     OW70206   2.442   5.552   8.011 -0.2305  0.1458 -0.1847
22922SOL    HW170207   2.424   5.516   7.925 -0.1290  0.6902 -0.4386
22922SOL    HW270208   2.537   5.560   8.016 -0.2723  0.7760 -0.3023
22923SOL     OW70209   6.526   3.126   6.435  0.2987 -0.0628  0.1651
22923SOL    HW170210   6.620   3.137   6.424  0.2656  0.1990  0.1290
22923SOL    HW270211   6.509   3.036   6.410  0.3236  0.2986 -1.2527
22924SOL     OW70212   2.773   7.115   0.608  0.1727 -0.1114  0.0445
22924SOL    HW170213   2.843   7.171   0.639  1.0892 -0.8847 -0.5933
22924SOL    HW270214   2.779   7.118   0.513  0.2335 -1.2647 -0.0013
22925SOL     OW70215   7.113   5.695   7.598 -0.8665  0.0945  0.1825
22925SOL    HW170216   7.029   5.723   7.636 -1.9916 -2.0822 -0.5550
22925SOL    HW270217   7.157   5.649   7.670 -0.6028  0.6081  0.3569
22926SOL     OW70218   6.319   5.371   2.546  0.0458  0.0421 -0.3933
22926SOL    HW170219   6.235   5.392   2.587  0.4710  1.1668 -0.0581
22926SOL    HW270220   6.333   5.279   2.566  0.1400  0.4878  1.8598
22927SOL     OW70221   5.817   5.595   7.520 -0.0813  0.2488 -0.3008
22927SOL    HW170222   5.860   5.644   7.450  0.7522 -0.6404 -0.4328
22927SOL    HW270223   5.739   5.557   7.479 -0.0104  0.3635 -0.5393
22928SOL     OW70224   6.155   3.293   5.713 -0.0986  0.2471 -0.4275
22928SOL    HW170225   6.164   3.198   5.722  0.5264  0.4421  1.1504
22928SOL    HW270226   6.068   3.312   5.748  0.4795  0.4551  0.9211
22929SOL     OW70227   5.353   1.312   6.519  0.1875 -0.3443  0.6303
22929SOL    HW170228   5.311   1.385   6.564  0.3570 -0.0036  0.2433
22929SOL    HW270229   5.406   1.354   6.451  0.0652 -0.8401  0.2242
22930SOL     OW70230   6.359   1.888   3.863  0.1451 -0.3295 -0.2628
22930SOL    HW170231   6.317   1.806   3.837  0.0712 -0.2665 -0.3438
22930SOL    HW270232   6.289   1.953   3.860  0.2136 -0.2545 -0.2419
22931SOL     OW70233   1.037   6.781  10.595  0.2109  0.6586 -0.0968
22931SOL    HW170234   0.994   6.733  10.524  0.1748  0.6075 -0.0398
22931SOL    HW270235   1.010   6.872  10.582 -1.2105  0.4019  0.8778
22932SOL     OW70236   5.395   3.549   3.091 -0.3817  0.1263  0.5143
22932SOL    HW170237   5.308   3.532   3.125  0.0785 -0.2425  1.5443
22932SOL    HW270238   5.424   3.628   3.136  0.2828 -0.4381  1.1141
22933SOL     OW70239   7.902   5.801   8.187  0.3279 -0.1894 -0.3046
22933SOL    HW170240   7.973   5.855   8.222 -0.7678  0.9808  0.1467
22933SOL    HW270241   7.859   5.856   8.122 -0.6132 -0.6354 -0.0679
22934SOL     OW70242   5.067   2.037  10.658 -0.0098 -0.1669  0.2292
22934SOL    HW170243   4.984   2.016  10.614  0.0858 -0.0075 -0.0298
22934SOL    HW270244   5.130   1.974  10.623  0.6398  1.4707 -1.7012
22935SOL     OW70245   4.485   7.537   3.969  0.8422  0.0370 -0.5698
22935SOL    HW170246   4.394   7.553   3.947  0.8020 -0.7826 -1.0725
22935SOL    HW270247   4.518   7.621   4.000  0.4215  0.8430 -2.1771
22936SOL     OW70248   3.302   6.373   0.670 -0.1242  0.3461 -0.2713
22936SOL    HW170249   3.265   6.288   0.646  0.1698 -0.2002  1.1459
22936SOL    HW270250   3.349   6.401   0.592 -1.0208 -0.3388 -1.0852
22937SOL     OW70251   0.992   5.108   6.800  0.0883 -1.0820 -0.2593
22937SOL    HW170252   1.001   5.062   6.717 -1.6344 -1.4073 -0.2929
22937SOL    HW270253   1.078   5.099   6.842  1.0031 -0.8526 -2.0112
22938SOL     OW70254   5.729   1.209   0.434 -0.2035  0.2524  0.2639
22938SOL    HW170255   5.726   1.148   0.361 -2.8686 -1.5826  1.7179
22938SOL    HW270256   5.820   1.206   0.465  0.5772 -0.1306 -1.9127
22939SOL     OW70257   4.403   1.396  11.059 -0.2374 -0.7297  0.1596
22939SOL    HW170258   4.402   1.486  11.090 -1.4778 -1.0541  1.1427
22939SOL    HW270259   4.468   1.395  10.989 -2.3391  1.5999 -1.9939
22940SOL     OW70260   2.487   6.651   6.359  0.7508 -1.1566  0.0372
22940SOL    HW170261   2.398   6.629   6.388 -0.0737  0.3695 -1.1658
22940SOL    HW270262   2.511   6.580   6.300 -0.2196 -0.9743 -0.6165
22941SOL     OW70263   0.163   6.201   1.603  0.2931  0.5973  0.0313
22941SOL    HW170264   0.115   6.284   1.602  1.0210  1.0724  1.3392
22941SOL    HW270265   0.244   6.221   1.650 -0.5197 -1.3845  2.4827
22942SOL     OW70266   2.422   2.501   1.270 -0.4047  0.0020  0.6584
22942SOL    HW170267   2.466   2.450   1.202 -1.5542 -0.1390 -0.0044
22942SOL    HW270268   2.479   2.495   1.346  1.3046  0.7696 -0.4928
22943SOL     OW70269   1.982   5.844   5.999 -0.6580  0.2601  0.1512
22943SOL    HW170270   1.929   5.923   5.987  0.4587  1.0567  0.2909
22943SOL    HW270271   2.071   5.871   5.973 -0.1492 -0.7921  0.7450
22944SOL     OW70272   5.252   3.499  10.511 -0.0533 -0.0506 -0.1642
22944SOL    HW170273   5.291   3.568  10.457 -0.3299  0.6038  0.4538
22944SOL    HW270274   5.166   3.533  10.535  0.5855  0.2898  1.8173
22945SOL     OW70275   5.675   6.278   9.199  0.2989  0.1605  0.1781
22945SOL    HW170276   5.748   6.293   9.259 -0.5692 -1.4552  1.7329
22945SOL    HW270277   5.715   6.278   9.112  2.1749 -0.8118  0.9867
22946SOL     OW70278   6.515   1.865   8.285  0.1918 -0.4330  0.2606
22946SOL    HW170279   6.603   1.842   8.254  0.8681  3.1895 -1.0251
22946SOL    HW270280   6.523   1.865   8.380  1.5163 -0.4534  0.1682
22947SOL     OW70281   5.219   2.921   3.525 -0.4959 -0.0290  1.1176
22947SOL    HW170282   5.223   2.827   3.506  0.2815  0.0502  0.8505
22947SOL    HW270283   5.269   2.931   3.606  1.4738  0.4428 -0.0760
22948SOL     OW70284   6.309   0.999   4.495  0.0441  0.2202  0.3109
22948SOL    HW170285   6.374   0.994   4.565 -0.3698  1.7021  0.8316
22948SOL    HW270286   6.226   1.017   4.540 -0.2198  1.2808 -0.5416
22949SOL     OW70287   6.778   6.292   7.899  0.1095  0.2009  0.3558
22949SOL    HW170288   6.823   6.222   7.946  0.6331  0.4801  0.2894
22949SOL    HW270289   6.722   6.333   7.965  0.3524  0.1790  0.5792
22950SOL     OW70290   6.069   5.334  11.392  0.0143 -0.1497 -0.3390
22950SOL    HW170291   6.146   5.311  11.444 -0.8725  0.2644  1.2357
22950SOL    HW270292   6.007   5.264  11.408 -1.0893  1.0620  0.9957
22951SOL     OW70293   7.047   4.882   1.719 -0.0620 -0.0274  0.2502
22951SOL    HW170294   7.074   4.968   1.687  0.5480 -0.3454 -0.1252
22951SOL    HW270295   7.128   4.844   1.754 -0.3857 -0.3353  0.6688
22952SOL     OW70296   0.345   0.254   2.309  0.1723  0.0212 -0.2075
22952SOL    HW170297   0.390   0.245   2.225  0.1415 -0.8266 -0.1461
22952SOL    HW270298   0.399   0.316   2.358  0.7797 -0.2847 -0.4694
22953SOL     OW70299   0.665   5.480   0.910 -0.3527  0.1721 -0.0350
22953SOL    HW170300   0.611   5.540   0.859 -1.1829 -1.3631 -1.0187
22953SOL    HW270301   0.614   5.463   0.990 -0.7814 -0.3115 -0.4036
22954SOL     OW70302   7.028   7.094   4.882  0.4564 -0.6758 -1.0621
22954SOL    HW170303   7.083   7.166   4.849  0.9404 -0.8931 -0.7604
22954SOL    HW270304   6.947   7.137   4.910  0.9267 -0.1632 -0.4382
22955SOL     OW70305   1.952   6.153   3.658 -0.1894 -0.0749 -0.4694
22955SOL    HW170306   2.032   6.199   3.681  0.8672 -1.3369 -1.4299
22955SOL    HW270307   1.883   6.199   3.705  1.0097  1.4343 -0.1087
22956SOL     OW70308   4.517   6.129   1.211  0.1064  0.0073 -0.2795
22956SOL    HW170309   4.533   6.035   1.213 -1.5422 -0.3760 -2.0589
22956SOL    HW270310   4.470   6.144   1.129 -1.0967  2.1415  0.7068
22957SOL     OW70311   6.748   7.124   0.954 -0.3434  0.3158 -0.1232
22957SOL    HW170312   6.684   7.184   0.919  0.7212  1.3980 -0.2676
22957SOL    HW270313   6.760   7.151   1.045  0.3500  0.5161 -0.2673
22958SOL     OW70314   5.131   7.579   7.712  0.0837 -0.3154  0.2787
22958SOL    HW170315   5.222   7.601   7.693  0.0999  0.2106  0.9233
22958SOL    HW270316   5.083   7.662   7.702 -0.0663 -0.2353  1.4420
22959SOL     OW70317   2.826   4.543   5.769  0.2765 -0.0984 -0.3295
22959SOL    HW170318   2.847   4.453   5.743 -1.7723 -0.7513  0.0735
22959SOL    HW270319   2.812   4.590   5.687 -0.2944 -0.6011 -0.5283
22960SOL     OW70320   6.994   1.453   2.510  0.1969 -0.7523  0.1683
22960SOL    HW170321   6.998   1.496   2.424  0.2364 -0.7238  0.1845
22960SOL    HW270322   6.940   1.512   2.563 -1.1620 -1.5467 -0.2924
22961SOL     OW70323   6.598   6.027  11.317  0.1024  0.8033  0.7195
22961SOL    HW170324   6.585   6.108  11.269 -1.9407 -0.7064 -1.5388
22961SOL    HW270325   6.518   6.017  11.369  0.0543 -0.0005  0.5144
22962SOL     OW70326   2.885   3.787  10.500  0.5124 -0.2156  0.5998
22962SOL    HW170327   2.909   3.699  10.472 -0.7988 -0.0998 -1.0300
22962SOL    HW270328   2.967   3.836  10.502  0.9545 -0.8506 -0.8907
22963SOL     OW70329   2.958   1.939   2.153  0.1424  0.1219  0.4212
22963SOL    HW170330   3.037   1.985   2.182  0.1968 -0.4273  1.1790
22963SOL    HW270331   2.893   1.959   2.220  0.0709 -0.6227  0.5794
22964SOL     OW70332   2.130   7.935   3.491 -0.4027 -0.3665  0.7792
22964SOL    HW170333   2.204   7.940   3.431  0.2822 -1.0989  1.5241
22964SOL    HW270334   2.094   8.024   3.492  0.1995 -0.1007  0.0758
22965SOL     OW70335   4.591   7.462   8.635 -0.1931 -0.0972  0.0159
22965SOL    HW170336   4.624   7.500   8.554  0.7764  0.5911  0.7093
22965SOL    HW270337   4.510   7.418   8.610  0.3860 -0.3855 -1.4248
22966SOL     OW70338   6.378   1.842   7.049 -0.0116 -0.0216  0.0125
22966SOL    HW170339   6.312   1.911   7.063 -0.0080 -0.2737  1.4957
22966SOL    HW270340   6.327   1.761   7.044  0.1437 -0.2248  1.2293
22967SOL     OW70341   3.346   0.142   0.736  0.1029 -0.2257  0.4611
22967SOL    HW170342   3.425   0.135   0.790 -1.1045 -2.0538  2.1077
22967SOL    HW270343   3.373   0.106   0.651  1.4994  0.8542  0.4158
22968SOL     OW70344   2.570   6.403   9.025 -0.1819  0.4338 -0.7222
22968SOL    HW170345   2.662   6.416   9.048 -0.4794  0.0423  0.8609
22968SOL    HW270346   2.559   6.308   9.024 -0.9183  0.4758  0.7860
22969SOL     OW70347   4.715   0.768   3.202 -0.1287  0.4493  0.0268
22969SOL    HW170348   4.733   0.728   3.118 -2.9056  0.4539 -0.6904
22969SOL    HW270349   4.795   0.757   3.253  0.5195 -2.5911 -1.4311
22970SOL     OW70350   0.486   1.320   0.570 -0.0511 -0.0214  0.7893
22970SOL    HW170351   0.435   1.243   0.544  0.1775  0.2400 -0.5213
22970SOL    HW270352   0.544   1.288   0.639 -0.9757 -0.6637  1.2867
22971SOL     OW70353   2.433   5.280   1.634  0.4995 -0.0895  0.1104
22971SOL    HW170354   2.523   5.295   1.608  0.3513  1.6164  0.4148
22971SOL    HW270355   2.401   5.367   1.660 -1.2595 -0.6245 -0.1033
22972SOL     OW70356   5.808   6.837  10.642  0.5242  0.5079  0.3212
22972SOL    HW170357   5.852   6.754  10.625 -0.0008 -0.2358  2.3159
22972SOL    HW270358   5.716   6.820  10.618  0.4030  0.4804  0.8001
22973SOL     OW70359   4.860   0.544   8.054  0.4651  0.6758  0.1277
22973SOL    HW170360   4.811   0.619   8.021  1.4132  0.5330 -1.7123
22973SOL    HW270361   4.938   0.582   8.094  0.5329  0.7143 -0.0422
22974SOL     OW70362   2.025   2.805   9.083 -0.2419  0.3454  0.3872
22974SOL    HW170363   2.040   2.887   9.037  0.7665  0.5487  1.0449
22974SOL    HW270364   2.058   2.738   9.024  1.0053  0.6006  0.7714
22975SOL     OW70365   5.331   7.026   7.897  0.0810 -0.4986 -0.4722
22975SOL    HW170366   5.337   6.945   7.848  1.6011 -0.2747 -0.7189
22975SOL    HW270367   5.343   7.095   7.832 -0.9635 -0.0744 -0.2319
22976SOL     OW70368   0.131   0.195   4.883  0.3424  0.2956 -0.4983
22976SOL    HW170369   0.069   0.192   4.810  0.6199  1.1522 -0.7847
22976SOL    HW270370   0.200   0.133   4.859 -0.8112 -1.3256  0.2290
22977SOL     OW70371   0.295   3.168   6.892 -0.2867 -0.6385  0.5696
22977SOL    HW170372   0.208   3.205   6.908 -0.8176 -1.1054 -1.0667
22977SOL    HW270373   0.278   3.082   6.855  0.8834 -0.7025  0.1442
22978SOL     OW70374   5.959   2.926   4.349 -0.5453 -0.1355 -0.2702
22978SOL    HW170375   5.928   2.937   4.439 -2.7658  0.4993 -1.0442
22978SOL    HW270376   5.911   2.850   4.316  1.0449 -1.0336 -0.6395
22979SOL     OW70377   3.317   1.725   6.066 -0.3137 -0.0542 -0.2980
22979SOL    HW170378   3.223   1.737   6.050  0.1329 -0.0505 -3.7517
22979SOL    HW270379   3.351   1.813   6.080 -0.3505  0.4256 -2.8331
22980SOL     OW70380   4.617   2.659  10.025 -0.4157  0.1786  0.1509
22980SOL    HW170381   4.686   2.654  10.091  0.0657 -0.9639 -0.3997
22980SOL    HW270382   4.653   2.717   9.957 -0.7156  0.9672  0.6549
22981SOL     OW70383   3.051   3.772   1.246 -0.0335  0.3332 -0.2721
22981SOL    HW170384   3.136   3.745   1.211  0.0898  1.4654 -0.9112
22981SOL    HW270385   2.988   3.746   1.178 -0.2487 -0.7739  0.3341
22982SOL     OW70386   5.910   7.340   6.700 -0.2202 -0.5930 -0.4432
22982SOL    HW170387   5.895   7.361   6.792 -0.0947  2.0725 -0.9604
22982SOL    HW270388   6.003   7.356   6.686 -0.5306  0.5126 -1.3607
22983SOL     OW70389   3.416   1.078   6.916  0.1789  0.3582  0.4411
22983SOL    HW170390   3.415   1.076   7.012  0.7741  1.3258  0.4825
22983SOL    HW270391   3.334   1.122   6.893  0.0276  0.1110  0.5051
22984SOL     OW70392   0.701   0.830  11.403  0.0215  1.0645 -0.2447
22984SOL    HW170393   0.797   0.832  11.414 -0.1255  2.9458  1.2117
22984SOL    HW270394   0.668   0.794  11.486 -0.5523  0.9242 -0.5312
22985SOL     OW70395   6.713   3.810   3.936 -0.4115  0.1165  0.2157
22985SOL    HW170396   6.779   3.782   3.873 -0.3154 -1.4671  0.9728
22985SOL    HW270397   6.732   3.903   3.952  1.6138 -0.2909  0.4040
22986SOL     OW70398   3.311   6.694   9.036 -0.0815 -0.2906  0.1291
22986SOL    HW170399   3.391   6.670   9.083  0.6908 -1.7004 -1.7430
22986SOL    HW270400   3.288   6.615   8.987 -0.4177  1.2305 -2.3497
22987SOL     OW70401   4.534   0.633  11.474 -0.3978  0.8944  0.2195
22987SOL    HW170402   4.505   0.697  11.540  0.6153  0.8848  0.6817
22987SOL    HW270403   4.626   0.653  11.461  0.4554 -1.6659  1.7480
22988SOL     OW70404   5.931   0.001  10.047 -0.5071 -0.5316 -0.2160
22988SOL    HW170405   5.918  -0.057  10.122 -1.0681  0.5520  0.5557
22988SOL    HW270406   5.970   0.080  10.084 -1.1470  0.1687 -0.9930
22989SOL     OW70407   0.217   2.565   7.094 -0.5287  0.0859 -0.9168
22989SOL    HW170408   0.272   2.642   7.079 -1.0342  0.3788 -1.3357
22989SOL    HW270409   0.152   2.595   7.158  0.1937 -0.4572  0.0894
22990SOL     OW70410   2.944   6.976   7.140  0.2222  0.2926  0.4233
22990SOL    HW170411   2.882   6.986   7.068  0.9106 -0.9622 -0.3627
22990SOL    HW270412   2.892   6.995   7.218 -1.4044 -1.5312 -0.1444
22991SOL     OW70413   1.398   1.800   4.268  0.8518 -0.2773  0.2128
22991SOL    HW170414   1.329   1.743   4.234  1.3289 -1.0877  0.5685
22991SOL    HW270415   1.374   1.816   4.359  1.2563 -0.7768  0.4143
22992SOL     OW70416   7.851   7.485  10.297  0.4032  0.2922  0.3220
22992SOL    HW170417   7.792   7.411  10.286  2.7539 -1.7358  0.4422
22992SOL    HW270418   7.837   7.539  10.219 -0.3061 -1.0948 -0.5605
22993SOL     OW70419   2.854   7.332   8.312  0.2631 -0.2330 -0.7189
22993SOL    HW170420   2.782   7.313   8.372  0.7771  0.6722  0.2152
22993SOL    HW270421   2.927   7.358   8.369  0.7176  0.7960 -1.7281
22994SOL     OW70422   5.042   7.267  11.194  0.6423  0.1483  0.1936
22994SOL    HW170423   5.102   7.286  11.122  1.2799 -0.9476  0.4132
22994SOL    HW270424   4.961   7.239  11.151 -0.6566  3.8865 -0.1797
22995SOL     OW70425   2.853   0.427   1.287 -0.5694  0.4187 -0.0150
22995SOL    HW170426   2.911   0.444   1.212 -0.2746  1.2712  0.3928
22995SOL    HW270427   2.834   0.513   1.323 -0.4926  0.0096  1.0514
22996SOL     OW70428   5.994   7.844   5.431  0.1765  0.2596 -0.0197
22996SOL    HW170429   5.952   7.909   5.375 -0.1980  0.2093  0.1992
22996SOL    HW270430   6.078   7.882   5.454  0.7430 -0.1156 -1.3711
22997SOL     OW70431   7.542   7.459   7.034 -0.1992  0.5528  0.2693
22997SOL    HW170432   7.567   7.456   7.127  2.5735 -1.3979 -0.4128
22997SOL    HW270433   7.515   7.369   7.014  0.0365  0.7552 -1.0148
22998SOL     OW70434   7.785   6.299   0.907 -0.2436 -0.2208  0.4030
22998SOL    HW170435   7.796   6.215   0.951 -2.1974 -0.4941  0.4792
22998SOL    HW270436   7.717   6.283   0.841  1.1008  0.7061 -1.3158
22999SOL     OW70437   4.773   2.078   7.988 -0.5962 -0.2254  0.0696
22999SOL    HW170438   4.828   2.019   8.039 -0.5963  0.3676  0.7730
22999SOL    HW270439   4.684   2.043   7.997 -0.3787 -1.0747 -0.9111
23000SOL     OW70440   3.089   2.310  11.117  0.2997  0.1313  0.4654
23000SOL    HW170441   3.085   2.215  11.116  0.1518  0.1033  1.6390
23000SOL    HW270442   3.172   2.331  11.075  0.9167 -0.5868  1.2755
23001SOL     OW70443   4.900   1.564   6.742  0.3367 -0.1684 -0.1533
23001SOL    HW170444   4.809   1.589   6.758  0.4236  0.6407 -0.8435
23001SOL    HW270445   4.917   1.492   6.803 -0.6449 -0.0675  0.2469
23002SOL     OW70446   2.889   7.062   8.187 -0.6070  0.0375 -0.0003
23002SOL    HW170447   2.838   6.984   8.210  0.0941  0.1568  2.1922
23002SOL    HW270448   2.829   7.135   8.205 -0.1642  0.1182  1.2207
23003SOL     OW70449   7.284   4.538   2.668  0.5669 -0.6199  0.1025
23003SOL    HW170450   7.198   4.506   2.640  0.0759  0.8316 -0.1026
23003SOL    HW270451   7.291   4.625   2.629  0.7662  0.6161  2.7326
23004SOL     OW70452   1.025   7.200   2.362  0.0667  0.5932 -0.2047
23004SOL    HW170453   1.069   7.129   2.315  1.6924  0.3317  1.5632
23004SOL    HW270454   0.983   7.157   2.437 -0.7838  1.2414 -0.2931
23005SOL     OW70455   7.070   0.627   2.922 -0.5758 -0.0250 -0.1888
23005SOL    HW170456   6.995   0.580   2.959  0.6116 -3.9676 -2.2028
23005SOL    HW270457   7.145   0.598   2.973 -0.0612  2.2425  0.4621
23006SOL     OW70458   3.280   0.344   4.582 -0.5174 -0.4173  0.3769
23006SOL    HW170459   3.190   0.373   4.597 -0.6302 -0.7252  0.3067
23006SOL    HW270460   3.274   0.248   4.577 -0.2153 -0.4267  0.1733
23007SOL     OW70461   3.658   0.195   4.908 -0.1241  0.1839  0.0199
23007SOL    HW170462   3.628   0.118   4.955 -1.9415 -0.0957 -1.4876
23007SOL    HW270463   3.604   0.266   4.942  0.3049  0.4643  0.1294
23008SOL     OW70464   0.858   2.143   8.960 -0.2432  0.0977 -0.1297
23008SOL    HW170465   0.918   2.170   9.030 -0.0747 -0.0548 -0.2138
23008SOL    HW270466   0.787   2.098   9.006  0.0781 -0.3725 -0.0891
23009SOL     OW70467   5.764   2.159  10.092  0.1423 -0.0996  0.8187
23009SOL    HW170468   5.716   2.132  10.014  1.5315  0.4726 -0.2615
23009SOL    HW270469   5.813   2.082  10.119  0.7794  0.1148  0.2734
23010SOL     OW70470   2.665   3.744   5.225 -0.2886 -0.0393  0.2189
23010SOL    HW170471   2.655   3.691   5.146 -1.7310 -1.4759  1.2946
23010SOL    HW270472   2.651   3.834   5.196  0.1352 -0.4475 -1.3033
23011SOL     OW70473   2.420   4.697   8.911  0.2204 -0.0811 -0.0483
23011SOL    HW170474   2.345   4.736   8.955 -0.1002  0.4481 -1.0468
23011SOL    HW270475   2.495   4.726   8.962 -0.2008 -0.1255  0.6041
23012SOL     OW70476   3.074   5.724   1.421 -0.1766 -0.1036  0.1726
23012SOL    HW170477   3.001   5.727   1.483 -0.4722 -0.7931 -0.1266
23012SOL    HW270478   3.151   5.708   1.475 -0.0410  1.8506  0.6326
23013SOL     OW70479   4.943   0.643   7.470 -0.1357  0.1391  0.4695
23013SOL    HW170480   4.936   0.689   7.386  0.2455  0.5204  0.6412
23013SOL    HW270481   5.036   0.647   7.493 -0.0629 -0.8940  0.3999
23014SOL     OW70482   0.276   1.313   4.943  0.1747 -0.0973  0.2903
23014SOL    HW170483   0.340   1.384   4.955 -1.0304  0.8469  1.4708
23014SOL    HW270484   0.205   1.354   4.893 -0.8086 -0.2589  1.5107
23015SOL     OW70485   6.056   7.246   1.658  0.3415 -0.1211 -0.1076
23015SOL    HW170486   6.087   7.159   1.683 -0.9110  0.0937  2.4212
23015SOL    HW270487   5.982   7.263   1.715  0.8714  2.8444 -0.1623
23016SOL     OW70488   7.445   7.617   8.058  0.5618 -0.5406 -0.0228
23016SOL    HW170489   7.391   7.538   8.052  1.4193 -1.0806 -1.0610
23016SOL    HW270490   7.415   7.671   7.984 -0.2704  0.2953  0.8922
23017SOL     OW70491   0.642   5.392   7.043  0.1760 -0.0418 -0.8970
23017SOL    HW170492   0.637   5.481   7.009 -0.6318  0.7430  1.1198
23017SOL    HW270493   0.643   5.336   6.965 -0.0400  1.6891 -2.1849
23018SOL     OW70494   7.305   6.181   3.947  0.0515 -0.1509 -0.2393
23018SOL    HW170495   7.251   6.241   3.896  0.7099  0.3563 -0.3590
23018SOL    HW270496   7.281   6.199   4.038  1.4220  1.5189 -0.1561
23019SOL     OW70497   1.479   7.926   7.148 -0.2180  0.0460 -0.0812
23019SOL    HW170498   1.392   7.891   7.166 -0.1298  0.5458  1.4433
23019SOL    HW270499   1.464   8.005   7.096 -0.8503  1.2624  1.8514
23020SOL     OW70500   7.087   0.959   4.835 -0.0355 -0.5683  0.1178
23020SOL    HW170501   6.993   0.961   4.819  0.1466  0.6891 -1.0801
23020SOL    HW270502   7.103   1.029   4.898  0.0154 -1.3036  0.9347
23021SOL     OW70503   6.014   6.843  11.996 -0.4296 -0.3650 -0.1219
23021SOL    HW170504   5.962   6.766  11.974 -0.2290 -0.8060  0.8733
23021SOL    HW270505   5.951   6.914  12.003 -0.6562 -0.4983 -0.7350
23022SOL     OW70506   1.865   3.848   2.400 -0.0215  0.1315 -0.5029
23022SOL    HW170507   1.895   3.916   2.460  0.0045  0.5415 -0.9712
23022SOL    HW270508   1.783   3.816   2.439 -1.4012  2.1869 -1.5091
23023SOL     OW70509   0.146   1.584   1.139  0.1880 -0.3240  0.0175
23023SOL    HW170510   0.187   1.669   1.123  1.0663 -0.4715  1.2756
23023SOL    HW270511   0.071   1.604   1.194  0.8990 -0.4200  1.0528
23024SOL     OW70512   5.660   6.702   2.023  0.1815 -0.1681  0.0749
23024SOL    HW170513   5.706   6.619   2.034  0.2209 -0.3369 -1.1611
23024SOL    HW270514   5.638   6.704   1.930 -0.4768  0.8691  0.2406
23025SOL     OW70515   6.294   2.800   7.499  0.4756  0.1809  0.1672
23025SOL    HW170516   6.226   2.789   7.566 -0.7133 -1.5418 -1.2291
23025SOL    HW270517   6.255   2.858   7.434  0.7828  0.0688 -0.1196
23026SOL     OW70518   6.174   2.603   9.038  0.2506  0.2107  0.4229
23026SOL    HW170519   6.268   2.605   9.017  0.2636 -1.4205  0.1902
23026SOL    HW270520   6.140   2.531   8.985 -0.7885 -0.3956  1.8632
23027SOL     OW70521   3.626   2.073   8.750 -1.2868 -0.6277  0.1541
23027SOL    HW170522   3.647   1.981   8.734 -0.4748 -0.3284 -0.5725
23027SOL    HW270523   3.632   2.083   8.845  0.2051 -0.9579  0.1109
23028SOL     OW70524   3.000   7.066   2.902  0.3346  0.0128  0.4277
23028SOL    HW170525   2.966   7.092   2.987 -0.8809  0.4494 -0.1648
23028SOL    HW270526   3.029   7.148   2.861  1.8227 -0.3020  0.7679
23029SOL     OW70527   5.279   3.148   5.822 -0.0967  0.2609  0.5200
23029SOL    HW170528   5.298   3.136   5.915  0.8593 -0.3942  0.2504
23029SOL    HW270529   5.363   3.135   5.778 -0.7515 -0.5842 -0.5321
23030SOL     OW70530   2.475   1.140  12.193 -0.0836  0.1193  0.2018
23030SOL    HW170531   2.498   1.048  12.206 -0.5944  0.0070  0.3313
23030SOL    HW270532   2.414   1.160  12.264  0.6744  0.7975  0.6773
23031SOL     OW70533   5.124   0.618  11.725  0.1184 -1.0663 -0.7435
23031SOL    HW170534   5.151   0.628  11.633 -1.5086  0.6081 -1.0840
23031SOL    HW270535   5.083   0.532  11.728 -0.1792 -0.9743 -1.6977
23032SOL     OW70536   7.919   3.104   5.126  0.6895  0.3001 -0.2153
23032SOL    HW170537   7.990   3.040   5.121  0.4631 -0.0922  1.0878
23032SOL    HW270538   7.840   3.051   5.141  0.2880  0.8082 -0.4810
23033SOL     OW70539   4.196   6.339   6.859 -0.2469 -0.3477  0.0286
23033SOL    HW170540   4.217   6.353   6.951  0.6441 -1.6613  0.0546
23033SOL    HW270541   4.281   6.330   6.816 -0.5586  1.9374 -1.2607
23034SOL     OW70542   6.871   0.764   3.128 -0.3492  0.2333 -0.6345
23034SOL    HW170543   6.826   0.848   3.132  0.5015  0.8846 -3.1957
23034SOL    HW270544   6.816   0.710   3.071  0.3713 -0.0834 -1.0376
23035SOL     OW70545   0.820   5.107  12.197 -0.7760 -0.2090 -0.1208
23035SOL    HW170546   0.862   5.022  12.208 -1.5881 -0.4974  0.9354
23035SOL    HW270547   0.865   5.164  12.261 -1.0437 -0.1614  0.0268
23036SOL     OW70548   5.208   0.720  11.476  0.4064 -0.0336  0.4785
23036SOL    HW170549   5.257   0.800  11.457  0.1674 -0.2126 -0.9658
23036SOL    HW270550   5.245   0.654  11.417 -0.3909 -0.6201  0.6158
23037SOL     OW70551   2.923   6.165   4.574  0.8001 -0.3428  0.3402
23037SOL    HW170552   2.988   6.129   4.514  0.7689 -2.4031  1.4536
23037SOL    HW270553   2.923   6.105   4.649 -2.9920 -1.0055  0.0028
23038SOL     OW70554   2.572   3.786   3.486  0.0951  0.0791  0.1986
23038SOL    HW170555   2.644   3.836   3.524  1.3376 -1.1036 -0.5127
23038SOL    HW270556   2.529   3.847   3.426  1.3684  0.4126 -0.4043
23039SOL     OW70557   5.484   3.000   7.278  0.7500 -0.0116 -0.0802
23039SOL    HW170558   5.434   3.063   7.226 -1.1660 -1.5121 -0.1861
23039SOL    HW270559   5.569   3.040   7.290  0.2192  1.7366 -1.7562
23040SOL     OW70560   1.565   1.509   8.623  0.4376  0.3524 -0.2637
23040SOL    HW170561   1.539   1.458   8.546  1.4103 -0.8472  0.1673
23040SOL    HW270562   1.646   1.552   8.596 -0.4321  1.8131 -0.6607
23041SOL     OW70563   0.613   4.482   2.409 -0.5632 -0.0091 -0.3207
23041SOL    HW170564   0.599   4.428   2.331  2.9694 -1.4543 -0.1519
23041SOL    HW270565   0.569   4.435   2.479 -1.7895  0.0621 -1.0138
23042SOL     OW70566   7.116   5.213   2.985  0.0345  0.5337  0.8502
23042SOL    HW170567   7.070   5.281   3.034  0.2258  0.6153  0.9176
23042SOL    HW270568   7.115   5.245   2.894  2.3940  1.9182  1.2495
23043SOL     OW70569   0.530   6.844   3.616  0.1224 -0.0408  0.3326
23043SOL    HW170570   0.479   6.862   3.537  1.3770 -1.2308 -0.8135
23043SOL    HW270571   0.526   6.749   3.625 -0.6617  0.1355  2.1938
23044SOL     OW70572   5.889   4.191   9.318 -0.0518  0.2778 -0.1517
23044SOL    HW170573   5.889   4.095   9.316  2.3609  0.2138 -2.3244
23044SOL    HW270574   5.930   4.213   9.401  1.8361 -0.6855 -0.7833
23045SOL     OW70575   1.017   4.859  11.017 -0.1330 -0.1811 -0.3964
23045SOL    HW170576   0.974   4.942  10.995 -0.4371  0.0994  1.1190
23045SOL    HW270577   0.956   4.792  10.987  0.3054  0.1009 -2.0213
23046SOL     OW70578   6.787   7.237   2.716 -0.5342 -0.0465 -0.3541
23046SOL    HW170579   6.710   7.211   2.767 -0.1054  0.8337  0.7832
23046SOL    HW270580   6.845   7.161   2.719 -0.3886  0.0890  0.7523
23047SOL     OW70581   1.996   2.394   2.977 -0.0691  0.4728 -0.1189
23047SOL    HW170582   2.091   2.407   2.978  0.0671 -0.3491 -0.9848
23047SOL    HW270583   1.984   2.304   3.008 -0.4748  0.1416 -1.2207
23048SOL     OW70584   5.982   3.999   7.603 -0.0133 -0.2928  0.4845
23048SOL    HW170585   6.063   4.025   7.647 -0.2989  1.2604  0.1336
23048SOL    HW270586   5.964   4.070   7.542  0.4268 -2.3900 -2.2792
23049SOL     OW70587   1.703   7.885   5.931  0.1522  0.3792  0.5958
23049SOL    HW170588   1.741   7.963   5.972  0.7713  0.4418 -0.0840
23049SOL    HW270589   1.748   7.877   5.847 -1.8939  0.9010 -0.6133
23050SOL     OW70590   3.639   6.011   0.777  0.1567  0.0196 -0.3364
23050SOL    HW170591   3.726   6.029   0.812  0.0572  0.0662 -0.1118
23050SOL    HW270592   3.651   5.932   0.723  0.3434  0.0450 -0.3327
23051SOL     OW70593   4.776   3.058   0.705  0.2407  0.3226 -0.0912
23051SOL    HW170594   4.810   3.047   0.617 -1.5802 -4.0573 -0.5212
23051SOL    HW270595   4.687   3.091   0.693 -0.3057 -1.0502 -0.0640
23052SOL     OW70596   7.860   1.601  12.245  0.4012 -0.3787  0.0073
23052SOL    HW170597   7.908   1.522  12.219 -0.0307 -0.4896 -0.4756
23052SOL    HW270598   7.792   1.610  12.178  0.6193  0.5614 -0.0911
23053SOL     OW70599   2.098   5.384   4.945 -0.0115 -0.5970 -0.7409
23053SOL    HW170600   2.021   5.345   4.987 -0.2079  1.7949  1.3560
23053SOL    HW270601   2.169   5.323   4.964 -0.5364 -0.6290  1.2950
23054SOL     OW70602   7.036   7.622   8.779  0.6203  0.3194 -0.2671
23054SOL    HW170603   7.095   7.697   8.774 -0.1499  1.0942  1.3799
23054SOL    HW270604   6.993   7.631   8.864 -0.2309 -1.4538 -0.4543
23055SOL     OW70605   7.785   1.481   2.255  0.4408 -0.2260  0.1026
23055SOL    HW170606   7.872   1.465   2.219  0.2682  0.6062 -0.7315
23055SOL    HW270607   7.759   1.397   2.292  1.6020 -0.4831  0.3856
23056SOL     OW70608   7.227   7.426   7.996  0.5385  0.2382  0.1564
23056SOL    HW170609   7.258   7.352   8.048  1.2619  0.8875  0.6674
23056SOL    HW270610   7.150   7.457   8.042  0.6040  0.1988  0.2929
23057SOL     OW70611   0.986   7.772   1.094 -0.1679  0.0183 -0.0940
23057SOL    HW170612   0.924   7.705   1.123 -0.6068  0.5576  0.2206
23057SOL    HW270613   1.071   7.728   1.097 -0.4577 -0.5454  0.0480
23058SOL     OW70614   0.138   4.868  10.442  0.3011  0.4643 -0.3693
23058SOL    HW170615   0.211   4.813  10.413  1.9244  0.9506  2.4550
23058SOL    HW270616   0.088   4.811  10.501 -0.4271  0.8039 -0.6434
23059SOL     OW70617   5.473   5.813   1.295 -0.2242  0.4193  0.2374
23059SOL    HW170618   5.440   5.735   1.339  1.7184 -1.0489 -0.7434
23059SOL    HW270619   5.544   5.844   1.350  0.5188  0.1035 -0.5161
23060SOL     OW70620   0.300   5.523   1.383  0.0921 -0.0956  0.1029
23060SOL    HW170621   0.252   5.563   1.311  0.8006  1.4077  0.4294
23060SOL    HW270622   0.374   5.479   1.342 -0.7573 -1.2158 -0.2695
23061SOL     OW70623   0.059   4.213  11.739 -0.1829 -0.1645  0.3801
23061SOL    HW170624  -0.010   4.228  11.675 -1.0306 -0.3000  1.2276
23061SOL    HW270625   0.108   4.295  11.742 -0.3709 -0.0307 -0.1568
23062SOL     OW70626   4.092   3.588  11.654  0.2813  0.6861 -0.3893
23062SOL    HW170627   4.103   3.683  11.644  0.1161  0.7090 -0.3499
23062SOL    HW270628   4.180   3.553  11.642  0.1227  0.7202 -1.7919
23063SOL     OW70629   0.781   6.724   4.317  0.7635 -0.1779  0.1655
23063SOL    HW170630   0.815   6.784   4.384  1.1283  0.2746 -0.4108
23063SOL    HW270631   0.702   6.767   4.285  0.1763 -0.7480  0.8011
23064SOL     OW70632   5.687   2.438   3.025  0.8092 -0.1961 -0.3596
23064SOL    HW170633   5.631   2.372   3.068 -0.9457  1.4109 -0.0069
23064SOL    HW270634   5.759   2.388   2.988 -0.3683 -2.2982 -0.0016
23065SOL     OW70635   1.807   5.394   6.473  0.1827 -0.8784  0.2863
23065SOL    HW170636   1.766   5.328   6.529  1.8450 -1.2076  1.1860
23065SOL    HW270637   1.881   5.348   6.434  0.5708  0.0870 -0.1390
23066SOL     OW70638   6.223   5.658   8.575  0.0551 -0.0101  0.0341
23066SOL    HW170639   6.231   5.605   8.496 -0.6057  1.2080 -0.8792
23066SOL    HW270640   6.296   5.721   8.569  0.1524 -0.0694  0.5279
23067SOL     OW70641   0.450   5.962  10.427 -0.1239 -0.2275  0.0363
23067SOL    HW170642   0.515   6.007  10.481  0.8293 -1.0046 -0.4312
23067SOL    HW270643   0.429   5.882  10.476 -1.0088  0.1772  0.3500
23068SOL     OW70644   6.303   3.003   0.488 -0.4176  0.0527 -0.2125
23068SOL    HW170645   6.252   3.081   0.506 -1.3291 -0.5657 -0.0312
23068SOL    HW270646   6.368   3.030   0.423  0.0673  1.2420  0.7438
23069SOL     OW70647   2.043   0.235   7.554  0.3048  0.8567 -0.7721
23069SOL    HW170648   2.100   0.174   7.601 -0.4089 -0.3055 -1.3697
23069SOL    HW270649   1.967   0.246   7.612  1.3510  2.9260  0.3337
23070SOL     OW70650   3.027   7.480   9.735 -1.0796  0.3358  0.5707
23070SOL    HW170651   2.932   7.495   9.733 -0.8751  1.6546 -0.2620
23070SOL    HW270652   3.058   7.533   9.808 -0.8818  0.5729  0.3156
23071SOL     OW70653   1.138   3.862   3.113  0.4291  0.2546  0.4367
23071SOL    HW170654   1.201   3.817   3.170  0.2098  1.0139  1.3161
23071SOL    HW270655   1.161   3.955   3.123 -0.1966  0.4583 -0.0158
23072SOL     OW70656   7.433   7.570   1.911  0.2425  0.3795  0.2416
23072SOL    HW170657   7.338   7.560   1.906 -0.0741  2.5331  0.8088
23072SOL    HW270658   7.458   7.605   1.826  0.8509 -1.8612 -0.5759
23073SOL     OW70659   7.268   4.918   7.587 -0.3319 -0.2637 -0.1818
23073SOL    HW170660   7.218   4.856   7.536  0.2877 -0.0712 -1.0410
23073SOL    HW270661   7.341   4.867   7.623  0.0281 -0.0998 -0.6690
23074SOL     OW70662   0.342   2.433   2.907  0.3831 -0.5402 -0.1871
23074SOL    HW170663   0.248   2.418   2.906  0.2654  0.1194  0.3404
23074SOL    HW270664   0.372   2.402   2.992  0.7288 -1.2161 -0.5482
23075SOL     OW70665   7.847   1.032   5.560 -0.4040 -0.0721  0.4283
23075SOL    HW170666   7.778   1.098   5.557  1.1989  1.7299  1.4501
23075SOL    HW270667   7.817   0.969   5.626 -1.8038 -0.2547 -0.3331
23076SOL     OW70668   0.038   2.310   2.286 -0.0859  0.2218  0.9014
23076SOL    HW170669  -0.044   2.335   2.243  0.5190  0.6671 -0.0070
23076SOL    HW270670   0.094   2.387   2.280  1.0447 -0.6455 -0.0694
23077SOL     OW70671   2.500   0.465   8.641 -0.6530  0.4288 -0.5062
23077SOL    HW170672   2.419   0.439   8.684 -0.0987 -0.9544 -0.2408
23077SOL    HW270673   2.482   0.456   8.547 -0.0423 -2.5279 -0.4272
23078SOL     OW70674   1.629   0.055   3.348  0.4728  0.3891  0.3097
23078SOL    HW170675   1.574   0.133   3.349  0.0038  0.1023 -1.0401
23078SOL    HW270676   1.584  -0.006   3.407  1.3203  1.4057  2.0843
23079SOL     OW70677   3.464   2.825   1.957  0.0122  0.0768  0.4531
23079SOL    HW170678   3.445   2.733   1.940  2.9535 -0.5942  0.2250
23079SOL    HW270679   3.449   2.836   2.051 -0.3758 -0.6477  0.4776
23080SOL     OW70680   3.480   1.488   1.033 -0.6210 -0.0798  0.0717
23080SOL    HW170681   3.438   1.574   1.037 -1.4727 -0.4507 -0.6838
23080SOL    HW270682   3.458   1.454   0.946  0.7097 -0.5626 -0.0966
23081SOL     OW70683   7.188   2.656   1.664 -0.6857 -0.7514 -0.1709
23081SOL    HW170684   7.183   2.562   1.648  0.2715 -0.9583  0.6118
23081SOL    HW270685   7.194   2.664   1.759 -1.5496  0.1490 -0.1784
23082SOL     OW70686   7.123   7.425  11.938  0.5978  0.3146 -0.3363
23082SOL    HW170687   7.202   7.449  11.987  0.5374 -0.7099  0.2780
23082SOL    HW270688   7.093   7.343  11.978 -2.6684  2.2471  1.6504
23083SOL     OW70689   3.325   3.813  11.002 -0.7144 -0.0608 -0.2874
23083SOL    HW170690   3.274   3.886  11.038  0.9655  2.6272 -2.8882
23083SOL    HW270691   3.262   3.766  10.946 -0.8709  2.3550 -2.3412
23084SOL     OW70692   5.166   6.050  12.313 -0.6206 -0.1826  0.4443
23084SOL    HW170693   5.167   6.124  12.373 -0.3906 -0.2332  0.5039
23084SOL    HW270694   5.251   6.054  12.269 -0.7432 -0.2112  0.2027
23085SOL     OW70695   2.251   2.285   3.291 -0.4356  0.8737  0.0554
23085SOL    HW170696   2.279   2.330   3.370 -2.6084  0.9161  0.8906
23085SOL    HW270697   2.156   2.278   3.300 -0.6649  0.1588 -2.1926
23086SOL     OW70698   7.391   3.104   2.232  0.7320  0.3153 -0.0277
23086SOL    HW170699   7.375   3.175   2.294 -1.5983 -0.6840  0.6141
23086SOL    HW270700   7.479   3.122   2.199  0.6442  2.9082  0.8501
23087SOL     OW70701   2.855   7.718   5.527  0.1746  0.2990  0.4429
23087SOL    HW170702   2.860   7.795   5.470  2.4058 -0.0228  0.1375
23087SOL    HW270703   2.946   7.690   5.539 -0.5276 -1.9428  1.0560
23088SOL     OW70704   6.107   1.400   0.215 -0.2723 -0.3859  0.0608
23088SOL    HW170705   6.188   1.426   0.172  0.2532 -2.7355 -0.5419
23088SOL    HW270706   6.050   1.476   0.208  1.5836  1.0391 -0.2377
23089SOL     OW70707   7.414   5.755   3.166  0.2328  0.3463 -0.3229
23089SOL    HW170708   7.459   5.807   3.098  0.3077  0.4580 -0.1884
23089SOL    HW270709   7.453   5.668   3.158 -0.1137  0.2258 -0.7583
23090SOL     OW70710   3.144   6.848   3.018 -0.2687 -0.2760 -0.2000
23090SOL    HW170711   3.157   6.804   2.934  0.4920  0.2195 -0.3467
23090SOL    HW270712   3.096   6.928   2.995  1.8434  0.9703 -0.4832
23091SOL     OW70713   3.640   4.836  10.782 -0.3292  0.0867  0.0956
23091SOL    HW170714   3.599   4.918  10.755  0.4673  0.8542  1.1494
23091SOL    HW270715   3.725   4.836  10.737 -1.0462 -1.0568 -1.3453
23092SOL     OW70716   0.348   6.442   5.074  0.6389 -0.1074 -0.0166
23092SOL    HW170717   0.415   6.377   5.094  0.2245  0.1174  2.5291
23092SOL    HW270718   0.284   6.433   5.145 -0.8452  1.2270 -1.0993
23093SOL     OW70719   3.053   5.811   4.632 -0.2579  0.7660 -0.2492
23093SOL    HW170720   2.971   5.761   4.625 -1.0600  2.1831 -1.4913
23093SOL    HW270721   3.121   5.744   4.630 -1.3500 -0.4311  0.5058
23094SOL     OW70722   4.979   7.783  10.424 -0.6024 -0.3974 -0.3408
23094SOL    HW170723   4.916   7.849  10.450  0.9312  1.2908 -0.6897
23094SOL    HW270724   4.938   7.739  10.349 -1.2900  0.7891 -0.6896
23095SOL     OW70725   3.830   2.460  10.528  0.0399 -0.4597  0.0269
23095SOL    HW170726   3.844   2.492  10.439  0.9935 -2.4649 -0.5932
23095SOL    HW270727   3.809   2.539  10.578 -0.2640  0.7540 -1.9001
23096SOL     OW70728   6.017   6.344   5.341 -0.4700  0.3409  0.4721
23096SOL    HW170729   5.943   6.319   5.285  0.6251 -0.0468 -0.8823
23096SOL    HW270730   6.027   6.271   5.402 -0.8874  0.1634  0.3282
23097SOL     OW70731   1.800   2.160   6.208 -0.3512 -0.2516  0.1182
23097SOL    HW170732   1.850   2.078   6.206 -0.4707 -0.3120 -0.4302
23097SOL    HW270733   1.709   2.133   6.215 -0.3371 -0.1451  0.8125
23098SOL     OW70734   7.903   2.974  10.968 -0.0496 -0.6096  0.0878
23098SOL    HW170735   7.914   3.048  10.909  0.3584 -0.9290 -0.2461
23098SOL    HW270736   7.808   2.961  10.973 -0.1081 -0.2695 -0.1034
23099SOL     OW70737   5.746   4.466   7.917  0.5633  0.7542  0.0280
23099SOL    HW170738   5.740   4.534   7.850 -0.3435 -1.2768 -2.1086
23099SOL    HW270739   5.670   4.480   7.973 -0.6558  0.4632 -1.4909
23100SOL     OW70740   5.301   0.688  10.360  0.8165  0.4864  0.1667
23100SOL    HW170741   5.216   0.726  10.378  0.0558 -0.2136 -1.6984
23100SOL    HW270742   5.348   0.692  10.443 -1.4618 -0.1972  1.5685
23101SOL     OW70743   1.667   4.508   3.863 -0.2398 -0.0139 -0.2630
23101SOL    HW170744   1.742   4.513   3.803 -0.8653  2.2460 -0.9424
23101SOL    HW270745   1.699   4.457   3.938  1.0760 -1.4797 -1.7383
23102SOL     OW70746   7.086   2.801   3.731  0.0040  0.4272  0.8313
23102SOL    HW170747   7.177   2.815   3.759  0.3102 -0.5141  0.3184
23102SOL    HW270748   7.045   2.756   3.805  0.3454 -0.4580  0.4909
23103SOL     OW70749   5.393   4.592  11.047 -0.9044  0.2454 -0.2997
23103SOL    HW170750   5.328   4.643  11.094 -1.2989 -1.6743  1.4271
23103SOL    HW270751   5.459   4.570  11.113  0.5787  0.6366 -1.5788
23104SOL     OW70752   5.816   5.188   6.141  0.3761  0.8026  0.1832
23104SOL    HW170753   5.871   5.143   6.205 -0.3458  0.9092  0.8967
23104SOL    HW270754   5.877   5.222   6.077  1.2171  1.5082  1.3229
23105SOL     OW70755   3.075   0.073   1.900 -0.1582 -0.2178 -0.1600
23105SOL    HW170756   3.132  -0.003   1.886  0.1212  0.0844 -0.7016
23105SOL    HW270757   3.068   0.081   1.995  0.3059 -0.5510 -0.0936
23106SOL     OW70758   7.585   5.693   2.406  0.0063  0.3955 -0.1749
23106SOL    HW170759   7.535   5.707   2.486 -0.8457  1.7187 -0.9056
23106SOL    HW270760   7.567   5.770   2.352  0.2714 -0.6166 -1.7978
23107SOL     OW70761   4.655   5.388   3.921 -0.1806  0.3273 -0.0568
23107SOL    HW170762   4.715   5.454   3.884  0.2290 -0.5029 -0.9237
23107SOL    HW270763   4.646   5.413   4.013  0.8284  0.9645 -0.1096
23108SOL     OW70764   5.058   5.978   9.739  0.7279 -0.1998 -0.5360
23108SOL    HW170765   5.010   6.017   9.812 -0.0499 -0.3799 -0.9454
23108SOL    HW270766   5.044   6.038   9.665  1.6220  0.0544 -0.5218
23109SOL     OW70767   0.687   6.112   5.531 -0.0888 -0.1385  0.0517
23109SOL    HW170768   0.771   6.071   5.514 -0.1652 -0.7689  1.1244
23109SOL    HW270769   0.667   6.090   5.622 -0.4714  1.6913  0.4449
23110SOL     OW70770   3.287   6.907   0.338 -0.6915 -0.0063  0.4387
23110SOL    HW170771   3.232   6.886   0.414  0.7164 -1.8752  1.0198
23110SOL    HW270772   3.310   6.822   0.301  3.2826  0.4888  1.3183
23111SOL     OW70773   3.608   5.806   1.268  0.1022  0.0060  1.0279
23111SOL    HW170774   3.600   5.797   1.363  0.4946 -0.5538  1.0134
23111SOL    HW270775   3.632   5.718   1.237 -1.5324 -0.2061  0.2354
23112SOL     OW70776   1.565   5.160   5.232 -0.2595  0.3174 -0.0254
23112SOL    HW170777   1.614   5.147   5.152  0.0134  0.9484  0.0342
23112SOL    HW270778   1.615   5.225   5.281 -0.1846 -0.3869  0.8624
23113SOL     OW70779   6.984   5.982   6.164  0.3614  0.5980  0.1291
23113SOL    HW170780   6.957   6.017   6.079 -0.0961 -0.8848 -0.3656
23113SOL    HW270781   6.984   5.887   6.152 -1.0296  0.2807  2.1520
23114SOL     OW70782   7.585   2.274   8.676  0.7170  0.4871 -0.1533
23114SOL    HW170783   7.642   2.294   8.750  1.8281 -1.0102 -0.5382
23114SOL    HW270784   7.641   2.286   8.599  0.5803 -1.1288 -0.5407
23115SOL     OW70785   6.743   4.526  11.519 -0.0784  0.3351  0.5407
23115SOL    HW170786   6.656   4.512  11.483 -0.2128 -1.6152  1.4949
23115SOL    HW270787   6.801   4.520  11.444 -0.6308 -0.0778  0.1408
23116SOL     OW70788   0.389   6.945   3.815  0.0715  0.3842 -0.3248
23116SOL    HW170789   0.472   6.924   3.772  1.1529  2.6153  0.4917
23116SOL    HW270790   0.325   6.888   3.773  1.9290 -1.1367 -1.2721
23117SOL     OW70791   1.116   5.725   2.490 -0.2628 -0.1471  0.5629
23117SOL    HW170792   1.040   5.753   2.541  0.0954 -1.8705  2.1510
23117SOL    HW270793   1.166   5.805   2.475 -0.7811  0.5342  2.2940
23118SOL     OW70794   3.838   0.138   3.930 -0.0325 -0.0170 -0.0684
23118SOL    HW170795   3.749   0.102   3.924 -0.2351  0.5969 -1.0004
23118SOL    HW270796   3.890   0.066   3.965 -0.5745 -0.9799 -1.1601
23119SOL     OW70797   5.980   7.739   0.109  0.4365 -0.0709  0.6376
23119SOL    HW170798   6.030   7.730   0.028  1.5669 -1.3860  1.4415
23119SOL    HW270799   6.033   7.797   0.164  0.5425 -0.5953  1.0922
23120SOL     OW70800   1.710   3.995   1.018 -0.0008 -0.3976 -0.1590
23120SOL    HW170801   1.788   3.944   0.996  0.1571 -0.6620  0.9353
23120SOL    HW270802   1.676   3.952   1.097 -2.2097 -1.3338 -1.5121
23121SOL     OW70803   4.031   4.455   9.999 -0.3691 -0.1621  0.0732
23121SOL    HW170804   4.108   4.501   9.966 -1.6198 -0.2136 -3.3037
23121SOL    HW270805   4.060   4.364  10.010  0.6284  0.2706  1.3036
23122SOL     OW70806   0.103   2.237   7.480  0.3181 -0.4122  0.0564
23122SOL    HW170807   0.009   2.226   7.495  0.1822  1.1449  0.4249
23122SOL    HW270808   0.112   2.237   7.384 -0.4481  2.1259 -0.0856
23123SOL     OW70809   3.150   2.181   8.514 -0.3333 -0.8184  0.2832
23123SOL    HW170810   3.118   2.243   8.579  0.2843 -0.1594 -0.0256
23123SOL    HW270811   3.102   2.100   8.532 -0.6872 -0.4386  1.0941
23124SOL     OW70812   7.732   7.455  11.370 -0.4654  0.6040 -0.3737
23124SOL    HW170813   7.786   7.441  11.292 -1.5295 -1.8491 -0.7876
23124SOL    HW270814   7.755   7.543  11.400  0.8494  1.1743 -2.7598
23125SOL     OW70815   6.114   0.742   0.502 -0.3421  0.0823  0.0929
23125SOL    HW170816   6.087   0.742   0.594 -0.3874 -0.7722  0.0822
23125SOL    HW270817   6.041   0.784   0.456 -1.0319 -0.9216  0.2480
23126SOL     OW70818   2.329   5.969   6.400 -0.1113  0.7113  0.3733
23126SOL    HW170819   2.261   5.948   6.336 -2.3328  2.2147  2.1128
23126SOL    HW270820   2.367   5.884   6.422 -0.8666 -0.0873 -1.2174
23127SOL     OW70821   1.108   4.577   8.934 -0.0260  0.0568 -0.4467
23127SOL    HW170822   1.125   4.670   8.944 -0.1524  0.0766 -0.4256
23127SOL    HW270823   1.037   4.572   8.869 -1.4529  0.0596  1.0643
23128SOL     OW70824   2.393   3.502   9.663 -0.3641 -0.0708 -0.4020
23128SOL    HW170825   2.434   3.423   9.627  0.1479  0.2975 -0.6410
23128SOL    HW270826   2.368   3.553   9.585 -0.2925  0.2067 -0.2428
23129SOL     OW70827   1.144   0.654  11.437  0.3821 -0.3804 -0.4787
23129SOL    HW170828   1.166   0.736  11.392  0.5188  0.4937  1.1084
23129SOL    HW270829   1.220   0.598  11.423 -0.1358 -0.6701 -2.4639
23130SOL     OW70830   6.026   7.754   6.869  0.0720  0.0205  0.4784
23130SOL    HW170831   6.061   7.691   6.807  0.1880 -0.0709  0.6351
23130SOL    HW270832   5.944   7.715   6.899  0.0186  0.0622  0.3849
23131SOL     OW70833   0.309   2.328   3.373  0.0855 -0.0766  0.4811
23131SOL    HW170834   0.296   2.234   3.379  1.1723 -0.2280  0.6634
23131SOL    HW270835   0.306   2.359   3.463 -1.7888  0.3109  0.3310
23132SOL     OW70836   1.999   2.354   5.820 -0.0694  0.0729 -1.2371
23132SOL    HW170837   1.940   2.397   5.758 -0.7761  1.9163  0.6055
23132SOL    HW270838   1.953   2.358   5.904  0.8738 -2.3080 -0.5245
23133SOL     OW70839   7.143   5.864   3.729  0.4711  0.4134  0.3073
23133SOL    HW170840   7.141   5.915   3.648  0.8052 -2.1302 -1.4111
23133SOL    HW270841   7.231   5.826   3.732 -0.7052 -2.6692 -0.3292
23134SOL     OW70842   1.335   7.317   5.156 -0.8838 -0.2500  0.6542
23134SOL    HW170843   1.375   7.246   5.206 -0.5740 -0.9137 -0.5059
23134SOL    HW270844   1.403   7.343   5.093 -1.3310  0.4462  0.4508
23135SOL     OW70845   4.334   4.310   5.727 -0.3517 -0.3074  0.4072
23135SOL    HW170846   4.310   4.272   5.811 -1.0858  0.5820  0.6254
23135SOL    HW270847   4.425   4.284   5.713 -0.5635 -1.3915  0.9377
23136SOL     OW70848   6.415   6.334   0.629 -0.1122  0.1466  0.2368
23136SOL    HW170849   6.433   6.241   0.617 -1.5069 -0.1946  0.6929
23136SOL    HW270850   6.406   6.345   0.723 -0.6565  0.6087  0.1356
23137SOL     OW70851   0.441   1.175   6.488  0.0181  0.1782  0.0280
23137SOL    HW170852   0.521   1.125   6.473  0.5991  0.5132  1.7277
23137SOL    HW270853   0.470   1.250   6.541 -1.6809 -0.7952  2.5455
23138SOL     OW70854   7.665   7.835   1.572 -0.0024 -0.2646  0.3585
23138SOL    HW170855   7.702   7.772   1.510 -1.5027  0.4929 -1.3717
23138SOL    HW270856   7.709   7.917   1.552 -0.0952 -0.1296  0.6973
23139SOL     OW70857   2.446   5.355   3.176  0.1344  0.5059 -0.3860
23139SOL    HW170858   2.395   5.437   3.179  0.9125  1.0445 -1.4632
23139SOL    HW270859   2.476   5.343   3.266  0.4991  1.7308 -0.3248
23140SOL     OW70860   0.632   3.496  11.805 -0.4015  0.1107 -0.5481
23140SOL    HW170861   0.670   3.447  11.878 -2.1224  0.1065  0.3908
23140SOL    HW270862   0.619   3.430  11.736  1.0340  0.0755 -0.8208
23141SOL     OW70863   0.713   2.296   6.223 -0.1964 -0.3526 -0.1005
23141SOL    HW170864   0.742   2.362   6.286 -0.5226 -2.0052  1.9159
23141SOL    HW270865   0.623   2.320   6.203 -0.3121 -0.1482  0.6219
23142SOL     OW70866   5.887   2.141   1.158 -0.0178 -0.4759 -0.2934
23142SOL    HW170867   5.876   2.057   1.113  1.6096 -0.2653 -1.1680
23142SOL    HW270868   5.958   2.126   1.221 -0.2300  0.0466  0.0832
23143SOL     OW70869   7.249   4.218  11.533  0.1000  0.4157  0.3939
23143SOL    HW170870   7.280   4.159  11.465  2.6697  0.1576  1.6837
23143SOL    HW270871   7.213   4.160  11.600  0.7409  0.4503  0.7663
23144SOL     OW70872   5.638   1.703  11.174 -0.2068  0.3080  0.3345
23144SOL    HW170873   5.680   1.786  11.194 -0.8817  0.3930  1.4674
23144SOL    HW270874   5.650   1.650  11.253  0.2280 -0.6914 -0.3709
23145SOL     OW70875   3.313   6.088  11.665 -0.0559  0.3425  0.2619
23145SOL    HW170876   3.250   6.054  11.729  0.1005  0.9110  0.7347
23145SOL    HW270877   3.395   6.044  11.688  0.5905  2.2714  2.0439
23146SOL     OW70878   5.045   2.779   3.934  0.2286 -0.2513 -0.0097
23146SOL    HW170879   5.083   2.709   3.881  0.9138  0.2045 -0.1305
23146SOL    HW270880   4.986   2.825   3.873 -0.4693 -0.9030  0.1546
23147SOL     OW70881   0.712   6.765   9.573 -0.1872  0.3612 -0.4661
23147SOL    HW170882   0.690   6.844   9.524  0.1771  0.7050 -0.0845
23147SOL    HW270883   0.792   6.732   9.531 -0.4162  0.1176 -0.7125
23148SOL     OW70884   0.085   5.208   1.346 -0.0419 -0.4993  0.5290
23148SOL    HW170885   0.181   5.205   1.344  0.0438  1.0670  1.2789
23148SOL    HW270886   0.058   5.151   1.275  1.5186  1.7664 -2.0538
23149SOL     OW70887   2.885   6.716  12.017  0.3640 -0.1311 -0.0571
23149SOL    HW170888   2.864   6.629  11.983 -1.6863  0.3985 -0.2583
23149SOL    HW270889   2.896   6.770  11.939  2.1287 -0.2733  0.0558
23150SOL     OW70890   4.829   4.137   1.266  0.3278  0.0954  0.2081
23150SOL    HW170891   4.826   4.062   1.206  1.2008 -0.1187  0.4168
23150SOL    HW270892   4.810   4.213   1.210 -1.9489 -0.3697  0.2364
23151SOL     OW70893   0.531   2.808   3.261 -0.3754  0.1563 -0.0012
23151SOL    HW170894   0.492   2.738   3.313 -0.1541 -0.3607 -0.5159
23151SOL    HW270895   0.566   2.870   3.325  0.3507 -0.7248  0.4717
23152SOL     OW70896   1.539   5.392   9.926 -0.0658 -0.0009 -0.1115
23152SOL    HW170897   1.534   5.300   9.900  1.0349 -0.5953  1.6116
23152SOL    HW270898   1.625   5.420   9.895  0.7873 -0.4000  1.7558
23153SOL     OW70899   4.558   6.921   9.965  0.2975 -0.0017 -0.2037
23153SOL    HW170900   4.653   6.907   9.968  0.9384  3.4959  1.8534
23153SOL    HW270901   4.540   6.979  10.039 -3.5953 -0.9296 -0.2062
23154SOL     OW70902   6.817   1.980  11.526 -0.3452  0.5032 -0.3865
23154SOL    HW170903   6.812   1.886  11.545  0.8735  0.4277 -0.3289
23154SOL    HW270904   6.747   1.996  11.463 -0.5049 -0.4677 -0.4738
23155SOL     OW70905   5.333   3.533   1.879 -0.1204  0.5560  0.3530
23155SOL    HW170906   5.339   3.608   1.820 -1.2373  0.3691 -0.0287
23155SOL    HW270907   5.259   3.554   1.937  1.1566  0.8858  1.9267
23156SOL     OW70908   6.677   2.671   6.475 -0.2784  0.2776  0.1766
23156SOL    HW170909   6.761   2.627   6.463 -0.8637 -1.0965  0.9389
23156SOL    HW270910   6.657   2.662   6.568  0.0062  3.0202  0.5854
23157SOL     OW70911   3.544   0.502   2.340 -0.2861  0.5257  0.3456
23157SOL    HW170912   3.464   0.554   2.339 -0.7341 -0.1611 -0.3313
23157SOL    HW270913   3.545   0.457   2.256  0.0501 -0.6327  0.9443
23158SOL     OW70914   5.626   4.982  12.062  1.0556 -0.6759 -0.5676
23158SOL    HW170915   5.706   4.956  12.017  1.4297 -0.4865 -0.0194
23158SOL    HW270916   5.647   4.973  12.155  1.0230  1.0495 -0.3732
23159SOL     OW70917   7.019   7.217   5.787  0.1947  0.4307  0.2637
23159SOL    HW170918   6.944   7.245   5.839 -1.4786 -2.0801 -0.6233
23159SOL    HW270919   7.086   7.193   5.851 -0.4828  0.8358  1.1386
23160SOL     OW70920   6.280   7.705   0.605  0.2374  0.3666  0.1752
23160SOL    HW170921   6.204   7.672   0.558  2.6938 -2.6187 -2.1089
23160SOL    HW270922   6.288   7.796   0.577 -1.7329  0.3962 -0.4572
23161SOL     OW70923   0.146   2.815  11.079 -0.3490 -0.0530 -0.1630
23161SOL    HW170924   0.077   2.851  11.024 -1.0982 -0.4062  0.5274
23161SOL    HW270925   0.100   2.780  11.156  0.6830  0.6452  0.8062
23162SOL     OW70926   6.008   5.825  11.148  0.2318  0.0072 -0.2974
23162SOL    HW170927   6.075   5.828  11.215 -0.0288  0.2446 -0.0455
23162SOL    HW270928   5.926   5.841  11.195 -0.0510 -0.6822 -0.5326
23163SOL     OW70929   4.009   6.704   1.957 -0.1472  0.0207  0.2719
23163SOL    HW170930   4.052   6.747   1.883  1.5764  0.3733  1.4279
23163SOL    HW270931   4.034   6.612   1.949 -0.6698 -0.1025 -0.0348
23164SOL     OW70932   6.141   6.707   1.235 -0.0079  0.4479  0.0218
23164SOL    HW170933   6.199   6.646   1.188 -0.2692  0.6127 -0.5308
23164SOL    HW270934   6.059   6.658   1.245  0.0051  0.4618  0.1834
23165SOL     OW70935   6.667   3.322   2.954 -0.8362  0.5185 -0.0775
23165SOL    HW170936   6.632   3.304   2.867 -2.3211  1.4819  0.2680
23165SOL    HW270937   6.698   3.413   2.949 -0.5904  0.4581  0.2935
23166SOL     OW70938   4.150   7.849   9.745 -0.0127 -0.7142 -0.3023
23166SOL    HW170939   4.110   7.883   9.665  0.1339 -0.4669 -0.2717
23166SOL    HW270940   4.238   7.887   9.746 -0.4729  0.3968  0.6792
23167SOL     OW70941   5.561   7.455   2.005 -0.0959 -0.2299  0.3195
23167SOL    HW170942   5.611   7.506   2.070 -1.4764  1.1450  0.3657
23167SOL    HW270943   5.595   7.485   1.921  1.4632 -1.7715  0.3505
23168SOL     OW70944   1.624   2.522   1.346 -0.2401  0.2481 -0.4617
23168SOL    HW170945   1.551   2.460   1.345  0.8778 -1.1034 -0.1764
23168SOL    HW270946   1.599   2.587   1.411 -1.6538  0.3926 -1.1137
23169SOL     OW70947   4.867   6.138   9.867  0.4644  0.1480  0.3417
23169SOL    HW170948   4.797   6.150   9.803  1.0966  1.2983 -0.1538
23169SOL    HW270949   4.827   6.085   9.936 -1.2904  1.8356  0.7082
23170SOL     OW70950   2.194   5.527   7.483  0.1674 -0.0876  0.3796
23170SOL    HW170951   2.172   5.435   7.467 -2.2217  0.5835 -0.6883
23170SOL    HW270952   2.182   5.539   7.577 -1.3982 -0.4755  0.2594
23171SOL     OW70953   6.431   2.299   5.498 -0.0584 -0.1730 -0.0159
23171SOL    HW170954   6.419   2.204   5.504  2.4581 -0.6668 -1.5092
23171SOL    HW270955   6.481   2.322   5.576 -1.0000  0.0048  0.5420
23172SOL     OW70956   4.638   6.221   3.713  0.2716 -0.3672  0.0777
23172SOL    HW170957   4.643   6.291   3.777  2.7952 -1.5068  1.2578
23172SOL    HW270958   4.546   6.192   3.716  0.3295 -0.6579  3.5630
23173SOL     OW70959   4.264   2.780  12.398 -0.0296 -0.0460  0.1210
23173SOL    HW170960   4.253   2.830  12.317 -1.3669 -0.1433  0.2331
23173SOL    HW270961   4.262   2.689  12.370  0.0522 -0.0723  0.2010
23174SOL     OW70962   3.331   5.632   4.144  0.1258 -0.1095 -0.5715
23174SOL    HW170963   3.244   5.610   4.178 -0.8348  0.0931 -2.7686
23174SOL    HW270964   3.316   5.704   4.084  1.9242  0.3324 -0.5426
23175SOL     OW70965   5.578   0.305   7.470  0.5363  0.1391 -0.0210
23175SOL    HW170966   5.655   0.250   7.482  0.6126  0.3865  0.6513
23175SOL    HW270967   5.505   0.242   7.463  0.9839 -0.1924 -2.5711
23176SOL     OW70968   4.357   5.496   9.411  0.2200  1.2469  0.3783
23176SOL    HW170969   4.358   5.401   9.425 -0.4271  0.4918 -3.6551
23176SOL    HW270970   4.269   5.522   9.439 -0.7742 -0.0019 -1.3398
23177SOL     OW70971   2.002   2.319   4.221  0.2878  0.5119  0.0823
23177SOL    HW170972   2.003   2.412   4.243 -0.4118  0.4482  0.4107
23177SOL    HW270973   1.973   2.276   4.301 -0.5780  0.1216 -0.4267
23178SOL     OW70974   6.452   3.475   4.528 -0.0241  0.0849 -0.1480
23178SOL    HW170975   6.502   3.436   4.457  0.5822  0.2949  0.1557
23178SOL    HW270976   6.483   3.431   4.607 -0.0946  0.4347  0.0764
23179SOL     OW70977   6.552   7.378   3.485 -0.5924 -0.1774 -0.5469
23179SOL    HW170978   6.532   7.288   3.511 -0.3354 -0.2119 -0.4596
23179SOL    HW270979   6.509   7.389   3.400 -0.7121 -0.3486 -0.5096
23180SOL     OW70980   0.440   3.580   4.243  0.9264 -0.5807 -0.7232
23180SOL    HW170981   0.494   3.513   4.202  2.4790  1.3866 -2.0879
23180SOL    HW270982   0.480   3.594   4.329  0.8305 -1.1089 -0.5889
23181SOL     OW70983   1.393   5.822   1.810 -0.4814  0.0749 -0.5710
23181SOL    HW170984   1.388   5.732   1.776  1.2769  0.1443 -1.1265
23181SOL    HW270985   1.477   5.825   1.856  0.2563  1.8382 -1.9084
23182SOL     OW70986   4.893   1.176   9.247 -0.4115  0.2614 -0.7459
23182SOL    HW170987   4.883   1.182   9.151 -2.0735  0.7850 -0.5804
23182SOL    HW270988   4.856   1.090   9.268  0.2236  0.0249 -0.6029
23183SOL     OW70989   6.408   5.683  10.928 -0.5148  0.7117 -0.1847
23183SOL    HW170990   6.441   5.723  10.848 -1.0542 -0.4200 -0.9880
23183SOL    HW270991   6.437   5.592  10.924  0.3895  0.8699  1.4463
23184SOL     OW70992   5.515   7.801   5.502  0.1487  0.0130 -0.1089
23184SOL    HW170993   5.565   7.769   5.576  1.0620  0.8314 -0.3615
23184SOL    HW270994   5.527   7.896   5.503 -1.1953  0.2175 -0.3248
23185SOL     OW70995   3.685   1.243   7.265 -0.6901 -0.0971 -0.7549
23185SOL    HW170996   3.638   1.319   7.299 -0.9333 -0.2972 -0.6331
23185SOL    HW270997   3.772   1.249   7.304 -1.2405 -0.8181  0.6861
23186SOL     OW70998   0.877   6.403   6.980 -0.7984  0.2046 -0.2143
23186SOL    HW170999   0.968   6.429   6.993 -1.0265  1.5178 -0.9712
23186SOL    HW271000   0.874   6.311   7.004  0.5117  0.3889  0.7832
23187SOL     OW71001   3.556   7.546  11.647  0.2905 -0.4025  0.2423
23187SOL    HW171002   3.619   7.617  11.638  0.7476 -0.7150  0.9576
23187SOL    HW271003   3.560   7.521  11.739  1.4615 -2.5443 -0.3307
23188SOL     OW71004   6.334   6.616   0.305 -0.1668 -0.2185  0.2343
23188SOL    HW171005   6.393   6.633   0.379 -1.8061 -0.5213  1.6792
23188SOL    HW271006   6.252   6.659   0.329 -0.5210  0.3629 -1.8141
23189SOL     OW71007   2.067   0.278   8.488 -0.4500 -0.5375  0.4393
23189SOL    HW171008   2.154   0.245   8.511 -0.1320 -0.3608 -0.4824
23189SOL    HW271009   2.042   0.332   8.564  0.7114  0.2901  0.2685
23190SOL     OW71010   5.531   1.556   0.096  0.0079 -0.8552  0.4927
23190SOL    HW171011   5.575   1.641   0.086  1.3748 -1.7297 -1.7982
23190SOL    HW271012   5.598   1.498   0.131  0.3513 -1.8799 -1.7115
23191SOL     OW71013   6.809   5.616   2.186 -0.5042  0.1226 -0.2150
23191SOL    HW171014   6.886   5.619   2.242 -0.8347 -0.3379  0.2704
23191SOL    HW271015   6.742   5.574   2.240 -0.6922 -0.7688 -1.1217
23192SOL     OW71016   5.070   1.792  11.045  0.1854  0.1185  0.3210
23192SOL    HW171017   5.076   1.885  11.021  1.8337 -0.1102 -0.2349
23192SOL    HW271018   5.095   1.789  11.137  0.0793  0.2220  0.3545
23193SOL     OW71019   4.557   0.891   8.471 -0.3601 -0.1866  0.0739
23193SOL    HW171020   4.466   0.917   8.481 -1.3268 -2.5607 -1.8315
23193SOL    HW271021   4.574   0.831   8.544 -0.1022  0.6701  0.7422
23194SOL     OW71022   2.156   2.949   9.491 -0.1405 -0.0114 -0.0365
23194SOL    HW171023   2.077   2.970   9.540  0.6757  1.1467  0.8394
23194SOL    HW271024   2.162   3.018   9.425  0.6913  0.5246  0.5849
23195SOL     OW71025   0.096   4.608   3.735  0.0400 -0.4950 -0.1670
23195SOL    HW171026   0.101   4.698   3.768 -1.6280  0.3630 -2.0365
23195SOL    HW271027   0.164   4.604   3.668 -1.5112  0.2274 -1.8381
23196SOL     OW71028   1.091   6.798   7.312  0.7159 -0.1996  0.0787
23196SOL    HW171029   1.001   6.777   7.337  1.1193 -2.6224 -0.3479
23196SOL    HW271030   1.088   6.806   7.217  0.5672  2.0427  0.2057
23197SOL     OW71031   2.814   4.503   6.084  0.0488 -0.3222 -0.4281
23197SOL    HW171032   2.906   4.494   6.110  0.0352  0.3179 -0.1506
23197SOL    HW271033   2.816   4.500   5.988  0.8023  3.1238 -0.6575
23198SOL     OW71034   4.428   7.729   9.949 -0.5245  0.1428 -0.4459
23198SOL    HW171035   4.412   7.712   9.857  0.7608  0.7212 -0.8043
23198SOL    HW271036   4.380   7.660   9.995 -1.8920  0.3633 -1.4915
23199SOL     OW71037   5.443   7.095   7.225  0.0856  0.2632  0.5930
23199SOL    HW171038   5.380   7.111   7.296  0.1868  2.9661  0.1773
23199SOL    HW271039   5.462   7.002   7.232 -2.3992 -0.2595  2.0238
23200SOL     OW71040   5.738   0.198   3.821 -0.0792  0.5760 -0.6317
23200SOL    HW171041   5.679   0.268   3.793 -0.4057  1.0095  1.0214
23200SOL    HW271042   5.714   0.182   3.912  2.0138  0.4290 -0.0481
23201SOL     OW71043   4.335   5.164   4.523  0.0483 -0.0321 -0.1658
23201SOL    HW171044   4.295   5.098   4.579 -1.4341  0.0564 -1.0717
23201SOL    HW271045   4.417   5.125   4.494  0.2701 -0.5456  1.0992
23202SOL     OW71046   2.781   1.500   1.710  0.3593 -0.5206  0.3784
23202SOL    HW171047   2.781   1.462   1.623  0.4512 -0.3421  0.2994
23202SOL    HW271048   2.808   1.591   1.696  0.1824 -0.4387  0.5678
23203SOL     OW71049   3.440   1.275  11.683  0.1408 -0.0290 -0.5990
23203SOL    HW171050   3.395   1.201  11.642  1.2533 -0.7558 -0.5732
23203SOL    HW271051   3.499   1.235  11.746 -2.5179  1.1106  2.9134
23204SOL     OW71052   0.882   7.172   3.794  0.8212  0.0647  0.0948
23204SOL    HW171053   0.802   7.152   3.745  2.1266 -1.0096 -1.7151
23204SOL    HW271054   0.951   7.169   3.729  2.5001 -0.1202  1.8071
23205SOL     OW71055   5.405   6.183   9.977 -0.0639 -0.0954 -0.2127
23205SOL    HW171056   5.339   6.126   9.938 -1.1192  0.5849  0.5467
23205SOL    HW271057   5.468   6.123  10.016 -1.2884 -0.7728  0.7925
23206SOL     OW71058   4.889   4.344  10.877 -0.2830  0.5662 -0.0087
23206SOL    HW171059   4.816   4.404  10.859  0.0201  0.8556 -0.2811
23206SOL    HW271060   4.967   4.400  10.876  0.4065 -0.2665 -3.4316
23207SOL     OW71061   4.920   3.815  11.809 -0.6093 -0.3120 -0.1156
23207SOL    HW171062   4.838   3.829  11.760  0.3448 -0.8076 -1.9576
23207SOL    HW271063   4.958   3.737  11.768  1.7896  1.1028 -0.7113
23208SOL     OW71064   6.993   2.531   2.464 -0.5228  0.4466  0.1173
23208SOL    HW171065   7.064   2.510   2.403 -1.2543 -3.7084  0.4207
23208SOL    HW271066   6.913   2.514   2.415 -1.1673 -0.4233  1.4070
23209SOL     OW71067   5.569   5.319   2.266 -0.6782  0.0265 -0.0396
23209SOL    HW171068   5.591   5.401   2.221 -0.5168 -0.1046 -0.2036
23209SOL    HW271069   5.639   5.307   2.330 -1.4231  0.7167  0.9397
23210SOL     OW71070   5.935   7.596   1.347  0.6475  0.2242  0.3267
23210SOL    HW171071   5.959   7.513   1.387  0.8428  0.2492  0.2610
23210SOL    HW271072   5.975   7.663   1.402 -0.5395  0.3317  1.1019
23211SOL     OW71073   7.686   3.602  11.643 -0.1440 -0.3517 -0.3340
23211SOL    HW171074   7.648   3.607  11.555 -0.9454  2.8013  0.0813
23211SOL    HW271075   7.718   3.690  11.660  2.4541 -1.5390  1.5450
23212SOL     OW71076   0.515   4.748   3.877 -0.3034 -0.2053 -0.0695
23212SOL    HW171077   0.476   4.824   3.832 -0.1104 -0.4408 -0.6451
23212SOL    HW271078   0.513   4.678   3.812 -2.9027 -1.5086  1.2547
23213SOL     OW71079   6.932   5.758  10.195  0.0171 -0.7882 -0.1903
23213SOL    HW171080   6.904   5.837  10.241 -1.0160 -0.9079 -0.5815
23213SOL    HW271081   6.915   5.687  10.257  0.2888 -0.7745 -0.0988
23214SOL     OW71082   2.958   4.367  12.401 -0.0925 -0.1319  0.1948
23214SOL    HW171083   2.924   4.330  12.482 -0.3671 -1.1645 -0.3702
23214SOL    HW271084   2.942   4.299  12.335  0.4294  0.5471 -0.6560
23215SOL     OW71085   2.338   7.275  10.834 -0.2738 -0.1048  0.0048
23215SOL    HW171086   2.375   7.360  10.809  1.5267 -0.9038 -0.2269
23215SOL    HW271087   2.281   7.252  10.760  0.2150  0.3397 -0.5286
23216SOL     OW71088   7.647   5.984   5.265  0.4395 -0.1450  0.1761
23216SOL    HW171089   7.697   5.977   5.346 -1.2269  1.9801  1.4644
23216SOL    HW271090   7.705   6.033   5.206  1.1370 -0.5541  0.5035
23217SOL     OW71091   0.423   1.739  10.612  0.1359  0.3893 -0.3867
23217SOL    HW171092   0.394   1.698  10.530 -1.5014  1.2447 -0.2584
23217SOL    HW271093   0.447   1.828  10.587  0.9071  0.2587 -0.1465
23218SOL     OW71094   1.194   1.750   4.705 -0.3149  0.3297 -0.1290
23218SOL    HW171095   1.160   1.669   4.667 -1.9774  0.7204  0.4545
23218SOL    HW271096   1.246   1.721   4.781 -0.9900 -0.1869  0.1433
23219SOL     OW71097   0.824   3.431   3.683  0.3583  0.0966 -0.5231
23219SOL    HW171098   0.828   3.344   3.643  0.4781  0.4166 -1.2320
23219SOL    HW271099   0.824   3.491   3.608 -0.7865  0.6717 -0.0791
23220SOL     OW71100   4.693   4.505   1.773  0.2776 -0.2530 -0.0147
23220SOL    HW171101   4.625   4.515   1.839 -1.2809 -1.8532 -1.2670
23220SOL    HW271102   4.743   4.587   1.776 -0.6467  0.2867  2.0876
23221SOL     OW71103   3.867   0.748   8.534  0.1142 -0.0763 -0.4497
23221SOL    HW171104   3.847   0.797   8.614 -0.2436 -0.5193 -0.2630
23221SOL    HW271105   3.962   0.758   8.524  0.6864 -2.3703  1.6550
23222SOL     OW71106   7.585   7.191   9.328  0.1176 -0.4568  0.1855
23222SOL    HW171107   7.511   7.193   9.268  0.0998 -0.4618  0.2075
23222SOL    HW271108   7.662   7.190   9.271  0.1175  0.2458  0.1636
23223SOL     OW71109   5.125   5.737   9.621  0.1270 -0.2912 -0.2050
23223SOL    HW171110   5.113   5.790   9.700 -3.0767 -0.9896 -0.0807
23223SOL    HW271111   5.105   5.797   9.549 -0.1603 -0.4501 -0.2607
23224SOL     OW71112   3.796   6.626   2.624  0.1214 -0.1705 -0.0371
23224SOL    HW171113   3.723   6.572   2.594  2.2039 -3.0497 -0.3164
23224SOL    HW271114   3.858   6.625   2.551  1.5906 -0.0731  1.1758
23225SOL     OW71115   6.279   4.320   4.048  0.1801  0.3760  0.2797
23225SOL    HW171116   6.297   4.231   4.017 -0.9092  0.2197  0.0426
23225SOL    HW271117   6.316   4.377   3.981 -0.8195  0.0599 -0.5679
23226SOL     OW71118   7.771   6.813  10.204 -0.0796  0.8167 -0.3243
23226SOL    HW171119   7.677   6.791  10.203  0.1832 -0.7760  1.8743
23226SOL    HW271120   7.812   6.743  10.153  0.0295  0.8733 -0.3131
23227SOL     OW71121   7.470   1.986   6.833  0.3578 -0.2033 -0.1137
23227SOL    HW171122   7.553   2.012   6.793  0.1126 -1.3134 -1.4202
23227SOL    HW271123   7.403   2.017   6.771 -0.0958 -0.9971 -0.0262
23228SOL     OW71124   6.142   6.207   8.554 -0.3243 -0.1309 -0.0825
23228SOL    HW171125   6.141   6.112   8.565 -0.7566 -0.3004 -1.3232
23228SOL    HW271126   6.135   6.242   8.642 -1.0392 -1.2671  0.3394
23229SOL     OW71127   2.471   0.542   6.755  0.1762  0.1813 -0.7208
23229SOL    HW171128   2.558   0.503   6.745  0.2792  0.0408  0.5384
23229SOL    HW271129   2.483   0.608   6.823 -1.1498 -1.3530  1.0931
23230SOL     OW71130   1.506   2.843   3.387 -0.0435  0.5906 -0.3737
23230SOL    HW171131   1.444   2.803   3.326 -0.5311 -0.5951  0.8547
23230SOL    HW271132   1.540   2.769   3.438 -0.4485  1.6454  1.5032
23231SOL     OW71133   7.702   7.237   7.244 -0.5985  0.2415 -0.2001
23231SOL    HW171134   7.701   7.330   7.222 -0.5169  0.6964  1.5575
23231SOL    HW271135   7.611   7.210   7.239 -0.7650  0.6929  0.3357
23232SOL     OW71136   5.524   6.240  11.616 -0.0964  0.2756  0.4885
23232SOL    HW171137   5.588   6.299  11.654 -1.1564  0.5283  1.9650
23232SOL    HW271138   5.460   6.297  11.573 -0.0679  0.0904  0.1910
23233SOL     OW71139   1.926   5.926   7.174  0.7129 -0.3047 -0.2366
23233SOL    HW171140   1.859   5.860   7.154  0.1073  0.3349 -0.3344
23233SOL    HW271141   1.976   5.887   7.246 -0.3452 -0.4008  0.4703
23234SOL     OW71142   1.355   3.374   5.413  0.4639 -0.0350  0.6173
23234SOL    HW171143   1.345   3.423   5.331 -0.4210 -0.7197  0.2980
23234SOL    HW271144   1.270   3.385   5.457  0.3334 -1.0951  0.6405
23235SOL     OW71145   1.768   7.705   8.396 -0.0391  0.1911  0.0322
23235SOL    HW171146   1.788   7.798   8.402 -1.6590  0.5037  1.7259
23235SOL    HW271147   1.779   7.684   8.304 -1.1736  2.4597 -0.6950
23236SOL     OW71148   2.196   2.623   1.183  0.0413  0.0346 -0.0127
23236SOL    HW171149   2.129   2.555   1.180  0.7874 -0.7566  0.5478
23236SOL    HW271150   2.270   2.581   1.226  0.2780  1.4345  1.0070
23237SOL     OW71151   5.217   3.027   9.741 -0.4344  0.2250 -0.2293
23237SOL    HW171152   5.301   2.984   9.757 -0.7575 -0.9198 -1.4525
23237SOL    HW271153   5.239   3.119   9.732  0.6736 -0.0357 -0.3534
23238SOL     OW71154   5.801   7.296   7.414  0.5599 -0.0227  0.0248
23238SOL    HW171155   5.766   7.242   7.485 -0.1547 -0.8288 -0.9076
23238SOL    HW271156   5.724   7.329   7.369  0.9902 -0.2910 -0.9373
23239SOL     OW71157   2.861   7.608   1.853  0.1215  1.0155  0.2020
23239SOL    HW171158   2.862   7.514   1.838 -0.0434  0.8479  1.1800
23239SOL    HW271159   2.854   7.646   1.766  2.0841  0.1825 -0.3796
23240SOL     OW71160   2.750   7.454   5.505  0.4451 -0.0804  0.4003
23240SOL    HW171161   2.762   7.549   5.504 -2.8473  0.4711 -1.2961
23240SOL    HW271162   2.839   7.418   5.504  1.7800  2.9655  0.2079
23241SOL     OW71163   6.119   2.021   3.914  0.2578  0.1575  0.8641
23241SOL    HW171164   6.025   2.038   3.905  0.1221 -0.1453  1.6970
23241SOL    HW271165   6.130   1.986   4.002  0.5224 -3.9807 -0.5918
23242SOL     OW71166   3.618   1.401   8.446 -0.6130  0.1590  0.2470
23242SOL    HW171167   3.664   1.485   8.457  0.0275 -0.2724  0.9064
23242SOL    HW271168   3.672   1.338   8.493 -1.5973 -0.4661  0.5553
23243SOL     OW71169   0.715   5.473   1.533 -0.1345  0.2492  0.0523
23243SOL    HW171170   0.713   5.400   1.471 -1.4166  0.8243 -0.6187
23243SOL    HW271171   0.725   5.550   1.478  1.2767  0.6022  0.7654
23244SOL     OW71172   2.688   7.320  10.688 -0.0830  0.0100 -0.0827
23244SOL    HW171173   2.783   7.334  10.693 -0.1786  1.0247 -0.8813
23244SOL    HW271174   2.671   7.305  10.595 -0.7568  0.1361  0.0162
23245SOL     OW71175   1.955   5.197   2.667 -0.6757  0.2205 -0.3867
23245SOL    HW171176   2.028   5.257   2.676 -1.9526  1.6209  1.2278
23245SOL    HW271177   1.913   5.196   2.754 -0.4524 -3.3953 -0.1502
23246SOL     OW71178   5.307   4.859   7.689 -0.2845 -0.3844  0.4421
23246SOL    HW171179   5.295   4.952   7.670 -1.0948 -0.3183  1.2539
23246SOL    HW271180   5.223   4.830   7.726  0.0888 -1.3454  0.5744
23247SOL     OW71181   7.061   6.640   2.468 -0.3637 -0.0672 -0.1372
23247SOL    HW171182   7.018   6.603   2.545  0.9418  1.2396  1.3002
23247SOL    HW271183   7.003   6.710   2.440 -0.2936  0.2162  0.4049
23248SOL     OW71184   0.521   5.549   3.955  0.1037 -0.4235  0.5562
23248SOL    HW171185   0.582   5.604   4.004  0.4586 -2.8066  2.9894
23248SOL    HW271186   0.439   5.556   4.004 -1.1127  1.1019 -1.5073
23249SOL     OW71187   6.486   6.419   7.677 -0.3612  0.3638  0.8552
23249SOL    HW171188   6.544   6.343   7.682 -0.5951  0.2133  1.4044
23249SOL    HW271189   6.515   6.476   7.748  0.9988  1.6630 -0.6513
23250SOL     OW71190   2.880   6.608   4.206 -0.0666  0.1135 -0.3089
23250SOL    HW171191   2.966   6.606   4.248  0.0381 -0.1369 -0.5259
23250SOL    HW271192   2.896   6.572   4.118 -0.7691 -1.9231  0.3439
23251SOL     OW71193   5.038   5.511   0.690 -0.5322 -0.5283 -0.3899
23251SOL    HW171194   5.035   5.467   0.775 -1.7423 -1.3509 -0.8261
23251SOL    HW271195   5.073   5.598   0.709 -1.3682 -0.4755  1.0624
23252SOL     OW71196   4.561   0.288   1.727  0.5505  0.7228  0.8312
23252SOL    HW171197   4.468   0.266   1.726  0.0196  2.7202  1.0332
23252SOL    HW271198   4.606   0.204   1.738 -1.1797 -0.3665  0.0986
23253SOL     OW71199   7.290   4.781   1.271 -0.1443  0.2939  0.3690
23253SOL    HW171200   7.305   4.833   1.193 -0.0012 -2.4042 -1.5560
23253SOL    HW271201   7.226   4.715   1.244  0.5146 -1.2439  2.2660
23254SOL     OW71202   2.062   1.055  12.169  0.4720 -0.3448  0.1740
23254SOL    HW171203   2.089   1.086  12.083 -2.0164 -0.5057 -0.7342
23254SOL    HW271204   2.037   0.963  12.155  0.9372 -0.6577  1.2845
23255SOL     OW71205   7.830   3.556   1.666 -0.6176 -0.0386 -0.0356
23255SOL    HW171206   7.874   3.609   1.600 -1.5173 -0.8650 -1.3355
23255SOL    HW271207   7.894   3.490   1.692  0.6969  1.8858  1.9678
23256SOL     OW71208   5.515   5.228   1.662 -0.2944 -0.0265 -0.4750
23256SOL    HW171209   5.496   5.165   1.593 -1.4214 -0.9737  0.6695
23256SOL    HW271210   5.430   5.252   1.698  0.3124 -0.3408  1.2738
23257SOL     OW71211   2.952   5.992   2.802 -0.3869  0.1971  0.1413
23257SOL    HW171212   2.927   6.075   2.763 -0.2807  0.9251  1.5431
23257SOL    HW271213   2.890   5.929   2.766 -1.8098  1.2749  0.5917
23258SOL     OW71214   2.771   7.164   5.088  0.3213 -0.5064  0.7363
23258SOL    HW171215   2.799   7.095   5.028  0.3272 -0.1090  0.2863
23258SOL    HW271216   2.853   7.200   5.123  0.3653  0.2556 -0.1328
23259SOL     OW71217   0.604   2.513  11.362  0.3058  0.3482 -0.0582
23259SOL    HW171218   0.644   2.582  11.310  0.6338 -0.9049 -1.5199
23259SOL    HW271219   0.613   2.543  11.452  1.2781  1.7709 -0.5966
23260SOL     OW71220   6.806   1.145   8.632  0.2177  0.6613 -0.0946
23260SOL    HW171221   6.863   1.209   8.589 -0.9258  2.1803  0.5365
23260SOL    HW271222   6.735   1.198   8.669 -0.1453 -0.8521  1.5147
23261SOL     OW71223   2.658   1.262   8.702 -0.1598  0.5590 -0.3542
23261SOL    HW171224   2.621   1.349   8.718  0.9616  1.1160 -0.6065
23261SOL    HW271225   2.587   1.211   8.664 -0.3684  1.9143 -1.8876
23262SOL     OW71226   3.281   6.469   9.645  0.0722 -0.1373  0.6210
23262SOL    HW171227   3.203   6.524   9.645 -0.5539 -0.9830  1.8234
23262SOL    HW271228   3.260   6.398   9.706  1.7494 -0.4324  0.8956
23263SOL     OW71229   2.977   1.789   4.003 -0.5995  0.3617  0.2287
23263SOL    HW171230   2.982   1.877   3.965  0.2390  1.0888  1.8816
23263SOL    HW271231   3.017   1.799   4.090 -2.1902 -1.2398  1.2016
23264SOL     OW71232   7.251   0.499  10.151 -0.0803  0.8599 -0.2716
23264SOL    HW171233   7.169   0.497  10.101  0.0597  1.4465 -0.5341
23264SOL    HW271234   7.313   0.449  10.098 -0.7521 -1.3112  0.8517
23265SOL     OW71235   5.804   6.839  10.209  0.3775  1.0348 -0.2859
23265SOL    HW171236   5.812   6.875  10.121 -0.3667  0.5705 -0.5589
23265SOL    HW271237   5.721   6.791  10.207  0.9424  0.0068  0.2981
23266SOL     OW71238   0.123   3.307   4.561  0.1175  0.1831 -0.4239
23266SOL    HW171239   0.087   3.396   4.566  2.0336  0.9373  2.1004
23266SOL    HW271240   0.094   3.264   4.641  1.5677 -0.4486 -0.2015
23267SOL     OW71241   6.878   2.947   0.319 -0.2847 -0.3059  0.0324
23267SOL    HW171242   6.954   2.889   0.329  0.3297  0.7228  1.6809
23267SOL    HW271243   6.806   2.888   0.296  0.8141 -1.4106 -0.7048
23268SOL     OW71244   7.426   7.357   6.536 -0.0026 -0.5503 -0.2342
23268SOL    HW171245   7.454   7.353   6.444  2.6921 -0.0020  0.4886
23268SOL    HW271246   7.467   7.281   6.577 -0.0514 -0.0165  0.8161
23269SOL     OW71247   4.766   0.705   9.866 -0.1051 -0.6304  0.2232
23269SOL    HW171248   4.719   0.622   9.868 -0.3202 -0.4941  1.7235
23269SOL    HW271249   4.700   0.768   9.837  0.3224 -1.0995 -1.9514
23270SOL     OW71250   3.894   3.531   7.559  0.0865  0.3172  0.4738
23270SOL    HW171251   3.885   3.607   7.502  0.8744 -0.0252 -0.1297
23270SOL    HW271252   3.963   3.478   7.518 -3.4603 -3.0764 -1.8361
23271SOL     OW71253   2.809   0.967   0.314  0.0346  0.1763  0.1429
23271SOL    HW171254   2.796   0.931   0.226 -0.3777 -0.2986  0.3919
23271SOL    HW271255   2.885   0.919   0.348  1.1990  1.4797 -0.5339
23272SOL     OW71256   3.045   1.998  11.709  0.1220  0.3546  0.0289
23272SOL    HW171257   3.010   2.043  11.632  1.2562  3.1217  0.9915
23272SOL    HW271258   3.070   2.069  11.768  1.2384 -1.6307  2.0710
23273SOL     OW71259   6.109   1.723   7.306 -0.0214  0.0602  0.1862
23273SOL    HW171260   6.161   1.718   7.226  1.5981 -1.0086  1.2379
23273SOL    HW271261   6.018   1.714   7.276  0.5004  0.1999 -1.5556
23274SOL     OW71262   7.430   7.247   8.539  0.0834 -0.5870  0.3533
23274SOL    HW171263   7.511   7.236   8.590 -0.4840 -2.3060  0.9523
23274SOL    HW271264   7.385   7.319   8.583  1.3505  0.5512 -0.1202
23275SOL     OW71265   6.879   5.857   4.780  0.3425  0.2167  0.3116
23275SOL    HW171266   6.958   5.851   4.834  0.7561  0.3966 -0.2609
23275SOL    HW271267   6.808   5.868   4.842  0.6833 -0.6957  0.8773
23276SOL     OW71268   3.237   4.186   0.164  0.0138 -0.0990  0.3910
23276SOL    HW171269   3.290   4.108   0.176  0.3900  0.0968  0.0368
23276SOL    HW271270   3.168   4.159   0.104  1.5337  0.4287 -1.7309
23277SOL     OW71271   0.495   1.728   2.589 -0.6668  0.2034 -0.2204
23277SOL    HW171272   0.478   1.660   2.523  0.5284 -1.7584  1.3896
23277SOL    HW271273   0.413   1.735   2.638 -1.0609  0.5459 -0.9150
23278SOL     OW71274   7.774   2.605   8.363 -0.6571  0.1963 -0.3167
23278SOL    HW171275   7.735   2.648   8.439  1.9459  0.6949  0.8300
23278SOL    HW271276   7.759   2.512   8.379 -0.2773  0.3023  0.7690
23279SOL     OW71277   3.907   2.551   5.031  0.4700 -0.3475 -0.7640
23279SOL    HW171278   3.975   2.538   5.097 -0.4124  0.1361  0.2620
23279SOL    HW271279   3.905   2.646   5.017 -0.6458 -0.2533 -0.0677
23280SOL     OW71280   2.128   0.047   4.428  0.6243  0.5267  0.4678
23280SOL    HW171281   2.147   0.095   4.347 -0.1992  0.1346  0.0315
23280SOL    HW271282   2.033   0.038   4.428  0.7123 -0.4552  0.9300
23281SOL     OW71283   2.540   5.265   9.144  0.1515 -0.0461  0.1632
23281SOL    HW171284   2.502   5.311   9.219  0.5398  0.7396 -0.1099
23281SOL    HW271285   2.471   5.206   9.115 -0.8359  1.2584 -0.2375
23282SOL     OW71286   7.226   7.866   6.794  0.3183  0.2794  0.1495
23282SOL    HW171287   7.292   7.824   6.849  0.2526 -0.3185 -0.2125
23282SOL    HW271288   7.155   7.890   6.853 -0.7032 -2.2483  0.0703
23283SOL     OW71289   7.814   2.759   0.283 -0.5613 -0.6226 -0.5124
23283SOL    HW171290   7.868   2.714   0.347 -1.5331 -1.3886 -0.1944
23283SOL    HW271291   7.836   2.718   0.199  0.0070 -0.2900 -0.5308
23284SOL     OW71292   0.742   1.578   9.380 -0.5847 -0.0703 -0.0055
23284SOL    HW171293   0.649   1.574   9.359 -0.2303  1.6208 -2.3362
23284SOL    HW271294   0.765   1.670   9.371  1.2849 -0.3892  0.8419
23285SOL     OW71295   7.612   7.844  10.113  0.0215  0.2541 -0.3055
23285SOL    HW171296   7.568   7.922  10.149 -0.8778 -0.0964 -0.6241
23285SOL    HW271297   7.705   7.865  10.119  0.0109 -0.0911  3.0209
23286SOL     OW71298   3.919   0.993   9.905 -0.1762  0.1358  0.2248
23286SOL    HW171299   3.893   1.082   9.882 -0.6284 -0.2504 -0.8049
23286SOL    HW271300   3.922   0.946   9.822 -0.1826 -0.8718  0.7746
23287SOL     OW71301   3.229   3.019   8.279  0.1365  0.1613 -0.3114
23287SOL    HW171302   3.161   2.976   8.227 -1.7693 -0.1454  2.2450
23287SOL    HW271303   3.294   3.047   8.215 -0.8340 -2.3461 -2.5768
23288SOL     OW71304   7.406   7.867  10.728  0.0580 -0.7206 -0.0195
23288SOL    HW171305   7.391   7.948  10.776  0.2494 -1.0552  0.6196
23288SOL    HW271306   7.465   7.892  10.657  1.3445 -0.5621  1.0483
23289SOL     OW71307   7.440   0.095  10.222 -0.0903  0.1029 -0.3696
23289SOL    HW171308   7.363   0.037  10.228  0.3602 -0.5907 -1.1423
23289SOL    HW271309   7.417   0.159  10.155  0.2051 -0.4385 -1.0019
23290SOL     OW71310   5.153   5.756   0.240 -0.1197 -0.3887 -0.4620
23290SOL    HW171311   5.239   5.796   0.229  0.0835 -0.7257 -0.1053
23290SOL    HW271312   5.128   5.776   0.330 -0.5461 -0.0383 -0.6524
23291SOL     OW71313   4.594   1.589   0.654 -0.0169  0.3463 -0.5851
23291SOL    HW171314   4.638   1.662   0.698  0.5547 -0.2985 -0.0527
23291SOL    HW271315   4.560   1.626   0.573  1.7584  0.8231 -1.1479
23292SOL     OW71316   4.570   3.958   7.885  0.6774 -0.2233  0.0955
23292SOL    HW171317   4.549   4.022   7.816 -1.9366  0.0285  1.0327
23292SOL    HW271318   4.516   3.882   7.865  2.6249 -1.6018 -0.1305
23293SOL     OW71319   3.888   0.943   5.360 -0.2384  0.0936 -0.2978
23293SOL    HW171320   3.805   0.987   5.377 -0.4889  0.0347 -1.3349
23293SOL    HW271321   3.893   0.874   5.426 -1.8600 -1.0428 -1.3020
23294SOL     OW71322   3.136   3.482   8.541 -0.8174  0.3874 -0.0260
23294SOL    HW171323   3.218   3.478   8.491  0.3165 -0.7500  1.7736
23294SOL    HW271324   3.123   3.575   8.559 -0.1650  0.6245 -0.7217
23295SOL     OW71325   2.789   2.059   7.988 -1.0580  0.0885 -0.5823
23295SOL    HW171326   2.706   2.049   7.942 -1.0783 -0.3020 -0.4612
23295SOL    HW271327   2.821   1.970   8.000 -0.5264  0.2486 -0.8012
23296SOL     OW71328   6.285   7.686  10.160 -0.3887  0.5406 -0.2032
23296SOL    HW171329   6.232   7.607  10.173  0.3690  0.4011  2.8544
23296SOL    HW271330   6.367   7.655  10.123 -0.4805  0.0058  0.0355
23297SOL     OW71331   2.976   5.009   0.150  0.0253  0.4058  0.4644
23297SOL    HW171332   3.054   5.022   0.204  1.6133 -2.4512 -0.8900
23297SOL    HW271333   2.912   4.971   0.210  1.0652 -0.8487  0.8345
23298SOL     OW71334   6.016   1.694  10.773  0.1520  0.6511 -0.1767
23298SOL    HW171335   5.995   1.642  10.851  0.2599 -0.7649 -1.0678
23298SOL    HW271336   6.105   1.725  10.789  0.9818 -1.3702 -0.6031
23299SOL     OW71337   1.252   2.771   0.705  0.6533 -1.0647  0.0118
23299SOL    HW171338   1.240   2.799   0.614  0.4264 -0.7981  0.1221
23299SOL    HW271339   1.340   2.803   0.728  0.8407 -1.4109 -0.2120
23300SOL     OW71340   7.403   3.826   8.843 -0.1734 -0.2887 -0.1978
23300SOL    HW171341   7.334   3.880   8.882 -0.4889  1.3788 -2.8029
23300SOL    HW271342   7.362   3.741   8.829 -0.9967  0.0201  0.2521
23301SOL     OW71343   2.492   1.404  10.567  0.1642  0.7831  0.1772
23301SOL    HW171344   2.532   1.321  10.594 -0.9354 -0.1232 -0.8824
23301SOL    HW271345   2.438   1.431  10.642  0.0072  0.1975  0.2765
23302SOL     OW71346   6.472   4.337   8.397 -0.1466  0.3035  0.4786
23302SOL    HW171347   6.512   4.391   8.466  0.0326  1.0427 -0.1899
23302SOL    HW271348   6.546   4.297   8.352 -0.2499  0.0636  0.5246
23303SOL     OW71349   0.080   1.327   2.535 -0.0143 -0.1924  0.0877
23303SOL    HW171350   0.058   1.312   2.627  0.2994 -0.7022  0.0811
23303SOL    HW271351   0.080   1.422   2.526  0.0626 -0.1346  0.6456
23304SOL     OW71352   1.204   5.072   1.379  0.5007 -0.7908  0.2798
23304SOL    HW171353   1.243   5.159   1.373 -1.9192  0.3506  0.0726
23304SOL    HW271354   1.278   5.012   1.370  2.0992  1.2134 -0.7884
23305SOL     OW71355   7.357   7.586   4.241  0.1729 -0.2624 -0.2725
23305SOL    HW171356   7.333   7.584   4.148 -0.2718 -1.8784 -0.1450
23305SOL    HW271357   7.410   7.507   4.254  1.1349  0.5016  0.6365
23306SOL     OW71358   4.331   7.614   4.268 -0.1644 -0.8376  0.1527
23306SOL    HW171359   4.332   7.699   4.312  0.0682 -2.1522  2.8420
23306SOL    HW271360   4.422   7.585   4.267 -0.2881 -1.2385 -0.4231
23307SOL     OW71361   5.154   3.386   2.826 -0.0729  0.0844  0.2135
23307SOL    HW171362   5.188   3.374   2.915  0.2760  1.6034  0.3149
23307SOL    HW271363   5.232   3.384   2.770 -0.1929  0.1074  0.0431
23308SOL     OW71364   1.816   5.346   0.807 -0.5752  0.3976 -0.1065
23308SOL    HW171365   1.757   5.407   0.851  0.1400 -0.3032  1.9456
23308SOL    HW271366   1.763   5.268   0.792 -0.8423  0.6636 -0.5624
23309SOL     OW71367   3.585   7.299   6.173  0.3884  0.3037  0.2679
23309SOL    HW171368   3.671   7.317   6.209  0.0523  2.8559 -0.0196
23309SOL    HW271369   3.524   7.325   6.243 -0.1794 -0.2146 -0.0233
23310SOL     OW71370   6.027   3.995   1.934  0.0376  0.0829 -0.2530
23310SOL    HW171371   6.003   3.914   1.980 -0.4063  0.3458 -0.0094
23310SOL    HW271372   6.117   3.982   1.907  0.3988  0.0312  0.9346
23311SOL     OW71373   4.635   1.219  11.031 -0.1608 -0.5483  0.2552
23311SOL    HW171374   4.668   1.256  11.113 -0.4562 -0.8676  0.5211
23311SOL    HW271375   4.615   1.295  10.976  0.9753 -0.3447  0.0994
23312SOL     OW71376   4.987   6.991   1.938  0.0062 -0.1399  0.0094
23312SOL    HW171377   4.950   6.950   2.017 -1.7765 -1.8729 -1.6368
23312SOL    HW271378   5.056   7.049   1.972  0.2383 -1.8313  2.7308
23313SOL     OW71379   0.263   2.150   3.848 -0.3956  0.1920 -0.2479
23313SOL    HW171380   0.169   2.153   3.868 -0.3497 -0.5359  0.1152
23313SOL    HW271381   0.304   2.207   3.913 -0.3051 -1.7144  1.4623
23314SOL     OW71382   3.248   6.970   3.644  0.2990  0.2066  0.4176
23314SOL    HW171383   3.248   6.888   3.595  0.4216  1.6851 -2.2782
23314SOL    HW271384   3.324   6.965   3.701  0.4455 -1.4200  0.1225
23315SOL     OW71385   3.887   3.576  10.803 -0.6987  0.1317 -0.4061
23315SOL    HW171386   3.966   3.595  10.855  1.2155 -3.6455 -1.5490
23315SOL    HW271387   3.837   3.515  10.858 -0.3794 -1.1822 -1.5231
23316SOL     OW71388   2.059   3.594  10.023  0.0496 -0.0821  0.3645
23316SOL    HW171389   2.117   3.627   9.954  0.3406 -0.9754  0.1656
23316SOL    HW271390   2.103   3.515  10.055  0.5629  0.9689  2.4407
23317SOL     OW71391   2.297   2.647   3.592  0.2415 -0.2600  0.3546
23317SOL    HW171392   2.261   2.731   3.563 -2.2066 -1.4216 -0.1813
23317SOL    HW271393   2.278   2.643   3.685  2.0368  0.5094  0.8126
23318SOL     OW71394   5.586   3.099   7.799  0.0992  0.4569  0.6925
23318SOL    HW171395   5.542   3.163   7.743 -0.1695 -0.7841 -0.5646
23318SOL    HW271396   5.571   3.130   7.888 -3.9895 -0.2416  0.4441
23319SOL     OW71397   0.992   2.989   8.739  0.0609 -0.1114 -0.0210
23319SOL    HW171398   1.054   2.929   8.697  2.2772  1.5642  0.6269
23319SOL    HW271399   1.027   3.001   8.827 -0.3163  1.9983 -0.0958
23320SOL     OW71400   5.111   1.518   7.595 -0.4810 -1.1872 -0.1483
23320SOL    HW171401   5.036   1.517   7.536 -0.9394  1.5658  0.2489
23320SOL    HW271402   5.074   1.534   7.682  0.5365  1.3943 -0.1008
23321SOL     OW71403   2.255   1.211   9.538 -0.7775 -0.4352 -0.2312
23321SOL    HW171404   2.333   1.257   9.569 -1.4271  1.2259 -0.9482
23321SOL    HW271405   2.181   1.257   9.578 -1.6124  1.4018 -3.5112
23322SOL     OW71406   4.576   3.778  10.830 -0.3092 -0.6963  0.5004
23322SOL    HW171407   4.666   3.755  10.808 -0.4587 -0.0262 -0.9072
23322SOL    HW271408   4.523   3.708  10.792 -0.4514 -0.5641  0.4544
23323SOL     OW71409   6.762   0.839   1.586  0.0870  0.5907  0.4058
23323SOL    HW171410   6.681   0.850   1.537 -0.4724 -1.2330  0.8298
23323SOL    HW271411   6.754   0.899   1.660 -1.5486 -0.5317  1.2021
23324SOL     OW71412   4.199   1.666   1.282 -0.1522  0.1043  0.1014
23324SOL    HW171413   4.167   1.587   1.239  1.6268  0.7052 -2.5174
23324SOL    HW271414   4.256   1.634   1.352 -0.2992 -0.9045 -0.2289
23325SOL     OW71415   1.004   7.427   9.146 -0.6324  0.2422  0.0724
23325SOL    HW171416   0.976   7.426   9.055 -2.0361 -1.6020  0.4505
23325SOL    HW271417   1.099   7.428   9.143 -0.6699  0.9338 -1.3942
23326SOL     OW71418   5.081   2.844   7.479  0.2165 -0.3003 -0.1585
23326SOL    HW171419   5.005   2.893   7.510 -0.0152  0.7773 -2.2734
23326SOL    HW271420   5.061   2.753   7.501 -0.8276  0.1547  0.9349
23327SOL     OW71421   5.215   6.990   4.704  0.0513  0.6844  0.3212
23327SOL    HW171422   5.269   6.912   4.718  0.9920  1.0343 -1.0932
23327SOL    HW271423   5.133   6.957   4.667  1.5430  0.4338 -3.2021
23328SOL     OW71424   5.235   7.430  10.186  0.3964  0.6180  0.3481
23328SOL    HW171425   5.158   7.439  10.242 -0.4554  1.7259 -0.9497
23328SOL    HW271426   5.202   7.440  10.097  1.5664 -2.0003 -0.4948
23329SOL     OW71427   0.567   2.123  10.972 -0.4744  0.2471 -0.3639
23329SOL    HW171428   0.500   2.176  10.930 -0.3881 -0.0502 -0.8913
23329SOL    HW271429   0.639   2.184  10.988 -1.2547  0.8092  1.1665
23330SOL     OW71430   5.236   0.311   0.983 -0.3347 -0.7310  0.3661
23330SOL    HW171431   5.157   0.311   0.928 -0.4134  1.6758  0.3615
23330SOL    HW271432   5.205   0.285   1.069 -1.3602  0.8927  0.5508
23331SOL     OW71433   3.991   7.641  10.232 -0.1052  0.2353  0.2250
23331SOL    HW171434   3.990   7.706  10.162 -1.5195  2.1633  1.9402
23331SOL    HW271435   3.921   7.579  10.209 -0.0855  0.4470 -0.4057
23332SOL     OW71436   0.466   6.548   3.629  0.2499 -0.7128  0.1972
23332SOL    HW171437   0.385   6.546   3.680 -0.7764 -2.4769 -1.3648
23332SOL    HW271438   0.494   6.457   3.625  1.4367 -0.3407 -0.6422
23333SOL     OW71439   4.579   7.789   8.611 -0.4403 -0.1773  0.3145
23333SOL    HW171440   4.526   7.836   8.675  0.5939 -0.8780  1.7207
23333SOL    HW271441   4.642   7.740   8.663  1.3545  0.3246 -1.3058
23334SOL     OW71442   1.252   7.726   7.980 -1.1575  0.7098  0.7619
23334SOL    HW171443   1.182   7.666   7.956 -0.0409 -0.4348  0.2392
23334SOL    HW271444   1.264   7.714   8.074  0.7248 -1.8363  0.2920
23335SOL     OW71445   1.396   6.449  10.172 -0.1065 -0.4135  0.7635
23335SOL    HW171446   1.370   6.515  10.237  1.3704 -0.0739  1.0425
23335SOL    HW271447   1.423   6.374  10.225 -0.8671 -0.8996  0.4706
23336SOL     OW71448   1.542   2.921   4.484  0.3921 -0.2788  0.3042
23336SOL    HW171449   1.632   2.924   4.514  1.4833  0.0903 -2.6208
23336SOL    HW271450   1.517   3.012   4.472 -1.0130 -0.2926  2.5815
23337SOL     OW71451   1.426   5.390   8.530  0.2970 -0.3031  0.6321
23337SOL    HW171452   1.430   5.301   8.564  0.7479 -0.1047  1.1109
23337SOL    HW271453   1.510   5.403   8.486 -0.5747 -0.8342 -1.3206
23338SOL     OW71454   3.402   1.660   4.040 -0.0386  0.2575 -0.4404
23338SOL    HW171455   3.462   1.622   4.104  0.2664 -1.0608 -1.4619
23338SOL    HW271456   3.458   1.715   3.984 -0.2951  1.3620  0.3505
23339SOL     OW71457   6.123   1.512   6.109  0.6493 -0.6785 -0.1162
23339SOL    HW171458   6.066   1.460   6.051 -1.0053  0.4414  0.4435
23339SOL    HW271459   6.076   1.595   6.121  1.7011 -0.2803  1.5738
23340SOL     OW71460   6.178   2.377   8.616  0.2971 -0.1128  0.2626
23340SOL    HW171461   6.093   2.351   8.581  1.6406 -1.3674 -2.3456
23340SOL    HW271462   6.166   2.376   8.711 -2.9046  1.0115 -0.0010
23341SOL     OW71463   0.929   2.165   4.813 -0.4424 -0.3435  0.4814
23341SOL    HW171464   0.961   2.094   4.869  0.5082 -0.4924 -0.2160
23341SOL    HW271465   0.845   2.190   4.851  0.0604 -0.6060  1.8108
23342SOL     OW71466   4.227   1.201   7.615 -0.5281 -0.2045 -0.2265
23342SOL    HW171467   4.277   1.248   7.549 -0.6726 -0.8271 -0.7968
23342SOL    HW271468   4.269   1.115   7.620  0.9074  0.5625  2.1454
23343SOL     OW71469   3.569   0.725   2.700 -0.0913 -0.0143  0.2187
23343SOL    HW171470   3.583   0.692   2.789  0.0814  0.0255  0.2075
23343SOL    HW271471   3.543   0.648   2.650 -2.7186  0.3952  0.8395
23344SOL     OW71472   6.127   5.180   6.872 -0.7099  0.1476 -0.1710
23344SOL    HW171473   6.160   5.259   6.829 -1.4643 -0.2127 -1.4754
23344SOL    HW271474   6.079   5.212   6.948  0.1622  0.8483  0.0995
23345SOL     OW71475   2.811   0.188  11.845  0.0653 -0.0821  0.1397
23345SOL    HW171476   2.844   0.215  11.931 -0.5786 -1.2680  0.7836
23345SOL    HW271477   2.775   0.100  11.859  2.2475 -1.4267 -1.8802
23346SOL     OW71478   2.366   6.902   9.897 -0.0880 -0.5296 -0.0416
23346SOL    HW171479   2.313   6.827   9.870 -0.9336  0.1404 -0.2823
23346SOL    HW271480   2.444   6.863   9.936 -0.7852 -1.5425  0.3900
23347SOL     OW71481   5.119   2.794  11.879 -0.0805 -0.2783  0.1346
23347SOL    HW171482   5.055   2.728  11.907  0.9378 -1.0214  0.7680
23347SOL    HW271483   5.111   2.864  11.944 -1.6054  0.5456 -0.8911
23348SOL     OW71484   7.661   5.356  12.117  0.0717  0.3125  0.1499
23348SOL    HW171485   7.642   5.446  12.144  1.2069  0.4736  0.4849
23348SOL    HW271486   7.635   5.352  12.025  0.9377  1.2895 -0.1554
23349SOL     OW71487   7.370   4.297   5.153  0.2273  0.1366 -0.2773
23349SOL    HW171488   7.304   4.229   5.165  1.2550 -1.0599 -1.1673
23349SOL    HW271489   7.321   4.372   5.119 -0.6739 -0.7639 -1.0333
23350SOL     OW71490   2.435   5.098   5.355  0.2192 -0.3224 -0.0585
23350SOL    HW171491   2.377   5.072   5.284 -2.8644 -1.3422  2.5977
23350SOL    HW271492   2.501   5.028   5.358 -0.8112 -1.3623 -0.6386
23351SOL     OW71493   0.826   0.994  11.955 -0.3445  0.4284  0.5713
23351SOL    HW171494   0.843   1.077  11.911 -2.2919  0.2121 -0.7303
23351SOL    HW271495   0.854   0.927  11.892 -0.0268  0.0882  1.0635
23352SOL     OW71496   6.651   1.765   2.087 -0.4408 -0.2197 -0.0309
23352SOL    HW171497   6.625   1.846   2.043 -0.9551  0.1222  0.8798
23352SOL    HW271498   6.697   1.715   2.020 -2.2151 -0.2297 -1.2951
23353SOL     OW71499   4.295   7.630   9.724  0.3730  0.1412  0.6840
23353SOL    HW171500   4.233   7.703   9.729 -0.4496 -0.5026  0.0186
23353SOL    HW271501   4.260   7.565   9.785  0.5173 -0.1398  0.4669
23354SOL     OW71502   2.174   0.870   8.452 -0.1279 -0.1334 -0.0887
23354SOL    HW171503   2.159   0.779   8.424  0.9733  0.1632 -1.7912
23354SOL    HW271504   2.108   0.920   8.404  0.5739  0.1741 -0.7492
23355SOL     OW71505   6.499   6.698   1.779 -0.0313 -0.7900 -0.2705
23355SOL    HW171506   6.489   6.651   1.862  1.1090 -0.1880  0.2242
23355SOL    HW271507   6.418   6.678   1.731 -0.1186 -2.2457  0.4178
23356SOL     OW71508   6.502   4.179   9.896 -0.4961 -0.1331  0.0836
23356SOL    HW171509   6.588   4.169   9.855 -0.4076  0.6556  0.0603
23356SOL    HW271510   6.510   4.136   9.980 -1.1339 -3.1462 -1.2726
23357SOL     OW71511   7.334   5.229   5.867  0.3856  0.1857  0.4802
23357SOL    HW171512   7.386   5.242   5.946 -0.6215  4.4258  0.6696
23357SOL    HW271513   7.371   5.290   5.803 -0.6013 -1.0743 -1.3907
23358SOL     OW71514   0.344   6.057  11.477 -0.1877 -0.1736  0.1019
23358SOL    HW171515   0.367   6.107  11.555  0.4049  1.4713 -1.0606
23358SOL    HW271516   0.249   6.060  11.474 -0.1675  2.4810 -0.8304
23359SOL     OW71517   3.122   2.503   6.664 -0.0679 -0.3387  0.0267
23359SOL    HW171518   3.135   2.585   6.712 -0.4430 -0.2717  0.0133
23359SOL    HW271519   3.196   2.448   6.692 -0.4012 -0.3832  0.8569
23360SOL     OW71520   6.829   4.091   5.617 -0.0727  0.8523 -0.9577
23360SOL    HW171521   6.779   4.125   5.543  0.4352  0.8921 -1.2882
23360SOL    HW271522   6.817   3.996   5.612 -0.6290  0.9015 -0.6579
23361SOL     OW71523   2.567   1.354   4.551  0.0195 -0.6438  0.5238
23361SOL    HW171524   2.579   1.274   4.501 -0.0181 -0.9889  1.0565
23361SOL    HW271525   2.493   1.335   4.610  0.4305 -0.4487  1.1128
23362SOL     OW71526   5.174   5.149   0.183 -0.2256 -0.4425  0.2194
23362SOL    HW171527   5.095   5.138   0.236  0.1631  0.1359  0.9405
23362SOL    HW271528   5.163   5.087   0.110 -0.8734 -1.0956  0.8512
23363SOL     OW71529   5.020   7.945   5.224  0.0305 -0.0931  0.1341
23363SOL    HW171530   5.111   7.919   5.241 -0.1702 -0.9710 -0.0926
23363SOL    HW271531   5.028   8.030   5.179  0.7579 -0.3588 -0.2617
23364SOL     OW71532   4.124   4.960   7.902  0.2687  0.1255 -0.0982
23364SOL    HW171533   4.060   4.977   7.833  0.5093  0.1919 -0.3055
23364SOL    HW271534   4.163   4.876   7.878 -1.3755 -1.1004  1.2575
23365SOL     OW71535   0.532   4.950   1.759 -0.2560 -0.0138  0.0933
23365SOL    HW171536   0.500   4.865   1.790 -0.8542  0.7702  1.7449
23365SOL    HW271537   0.589   4.982   1.829 -1.8306  1.9217  0.6178
23366SOL     OW71538   3.446   1.214   8.306 -0.1108  0.2960  0.1183
23366SOL    HW171539   3.487   1.132   8.333  1.4839  0.4942 -1.4296
23366SOL    HW271540   3.502   1.282   8.344 -1.0514  0.6636  0.8641
23367SOL     OW71541   7.372   2.395   6.843 -0.0025 -0.3205  0.4338
23367SOL    HW171542   7.301   2.439   6.796  0.3650  0.1508  0.3222
23367SOL    HW271543   7.331   2.316   6.878 -0.8472  0.4517  1.2366
23368SOL     OW71544   2.361   1.162  11.429  0.3650  0.1221  0.4829
23368SOL    HW171545   2.430   1.207  11.479  1.3776 -0.8524  0.0116
23368SOL    HW271546   2.285   1.162  11.487  0.8353  0.9927  1.1246
23369SOL     OW71547   1.893   6.920   8.262 -1.0453  0.0890  0.2919
23369SOL    HW171548   1.971   6.865   8.269  0.1623  1.3331 -2.1030
23369SOL    HW271549   1.822   6.864   8.293  0.3152 -2.3455 -0.6870
23370SOL     OW71550   7.752   7.741  11.385 -0.2265  0.6488 -0.1617
23370SOL    HW171551   7.834   7.791  11.383 -0.8098  1.6909  1.0231
23370SOL    HW271552   7.714   7.754  11.298  1.0721 -0.2349 -0.8896
23371SOL     OW71553   5.141   2.308   3.134 -0.4791 -0.0739  0.3254
23371SOL    HW171554   5.089   2.362   3.194  0.9368  0.7968  0.8064
23371SOL    HW271555   5.177   2.238   3.189 -1.0254 -0.6174  0.0129
23372SOL     OW71556   5.634   6.986   9.563  0.7400 -0.0220 -0.0237
23372SOL    HW171557   5.661   6.895   9.569  0.4372 -0.0480  1.3727
23372SOL    HW271558   5.699   7.034   9.615  0.3694  0.4335  0.0319
23373SOL     OW71559   7.144   3.169   6.079  0.1506  0.3569  0.0706
23373SOL    HW171560   7.227   3.212   6.096  1.0957 -0.0037 -2.9808
23373SOL    HW271561   7.083   3.241   6.062  0.8175  0.6231 -1.3655
23374SOL     OW71562   6.537   1.055   8.553  0.0229 -0.1148  0.0095
23374SOL    HW171563   6.577   1.086   8.472 -1.2101  0.5819 -0.3690
23374SOL    HW271564   6.535   1.131   8.610  0.4440 -0.4825  0.5303
23375SOL     OW71565   1.050   0.681   4.346  0.0008 -0.2756  0.2825
23375SOL    HW171566   1.054   0.589   4.320 -0.5063 -1.0049  2.5169
23375SOL    HW271567   0.961   0.692   4.380 -0.3432  1.3972 -1.0168
23376SOL     OW71568   4.152   2.133  12.045 -0.5391 -0.1336  0.0430
23376SOL    HW171569   4.137   2.047  12.084 -0.6997 -1.2211 -2.2665
23376SOL    HW271570   4.235   2.162  12.082 -0.1386 -1.5931  0.3494
23377SOL     OW71571   0.663   7.890  10.062  0.1648  0.2109 -0.3229
23377SOL    HW171572   0.638   7.973  10.019  3.0281  2.2644  1.6421
23377SOL    HW271573   0.733   7.855  10.007 -1.4534 -1.3769 -1.4962
23378SOL     OW71574   0.312   0.378  10.292  0.0624  0.5028 -0.6457
23378SOL    HW171575   0.340   0.381  10.383  0.2561 -0.0965 -0.6806
23378SOL    HW271576   0.217   0.382  10.295  0.0360 -0.1688 -0.3741
23379SOL     OW71577   6.807   6.590   2.175 -0.2645  0.0205 -0.2359
23379SOL    HW171578   6.799   6.663   2.236 -1.9998 -3.5184  4.3718
23379SOL    HW271579   6.718   6.580   2.139  0.4940  1.3827 -2.7463
23380SOL     OW71580   2.515   1.568   6.355 -0.6446 -0.0736 -0.1832
23380SOL    HW171581   2.454   1.503   6.323  0.6468 -1.0432 -0.7629
23380SOL    HW271582   2.523   1.631   6.284 -0.0621 -0.6069 -0.6020
23381SOL     OW71583   7.039   7.887   1.535 -0.9098  0.0238  0.3194
23381SOL    HW171584   7.074   7.799   1.519 -2.9428 -0.4915 -1.7487
23381SOL    HW271585   7.099   7.924   1.600  1.2946 -2.0585 -0.3546
23382SOL     OW71586   2.709   4.911  12.086 -0.0989 -0.1820  0.7764
23382SOL    HW171587   2.796   4.871  12.078 -0.5357 -1.1225  0.5945
23382SOL    HW271588   2.726   5.001  12.110  0.9257 -0.4347  1.0311
23383SOL     OW71589   7.919   5.560  11.412 -0.0656  0.2603  0.6522
23383SOL    HW171590   7.998   5.506  11.404  0.3579  0.9150  0.3197
23383SOL    HW271591   7.862   5.531  11.341 -0.1957 -0.3130  0.9795
23384SOL     OW71592   7.148   5.899   5.797  0.0770 -0.2268 -0.5121
23384SOL    HW171593   7.083   5.834   5.771 -1.3975  0.7448  0.5852
23384SOL    HW271594   7.164   5.950   5.718 -2.0933  0.8132 -0.3438
23385SOL     OW71595   0.990   5.958   1.847  0.3582  0.1045 -0.2976
23385SOL    HW171596   0.944   5.953   1.763  1.1690 -2.1687 -0.6722
23385SOL    HW271597   1.004   5.867   1.872  0.8226  0.7406  1.9526
23386SOL     OW71598   1.863   1.456   0.730  0.1400  0.0390 -0.1876
23386SOL    HW171599   1.794   1.430   0.669 -0.1923  0.1543  0.1351
23386SOL    HW271600   1.822   1.520   0.788  0.7365  0.7101 -0.4814
23387SOL     OW71601   4.757   1.422   5.105  0.3100  0.3629 -0.3476
23387SOL    HW171602   4.783   1.502   5.060  0.7627  0.1460 -0.4794
23387SOL    HW271603   4.682   1.390   5.053 -1.4573  1.9401  1.0856
23388SOL     OW71604   4.075   0.569  10.475 -0.1839 -0.3477  0.4683
23388SOL    HW171605   4.089   0.658  10.444 -0.0731 -1.0617 -1.7094
23388SOL    HW271606   3.984   0.549  10.451 -0.4439 -0.6066  1.5934
23389SOL     OW71607   3.689   1.078   9.427  0.4129  0.9432  0.0727
23389SOL    HW171608   3.650   1.031   9.501  0.3287 -0.0095 -0.5568
23389SOL    HW271609   3.652   1.166   9.432 -0.0576  0.7149  0.8012
23390SOL     OW71610   7.039   4.190   0.842  0.2685  0.4955 -0.1279
23390SOL    HW171611   7.026   4.210   0.749 -0.9706  1.1412  0.1550
23390SOL    HW271612   6.974   4.244   0.887  0.7571  0.0888  1.1125
23391SOL     OW71613   1.473   2.809   2.400  0.2887 -0.1407  0.0936
23391SOL    HW171614   1.384   2.774   2.390 -0.1187  1.0912 -0.7677
23391SOL    HW271615   1.476   2.884   2.342  1.4281  0.7402  1.2364
23392SOL     OW71616   5.457   4.933   8.080  0.4674 -0.3270 -0.7852
23392SOL    HW171617   5.496   4.865   8.026 -0.0063 -0.9535 -0.3515
23392SOL    HW271618   5.364   4.931   8.058  0.6702  1.3316 -2.0067
23393SOL     OW71619   3.238   7.408   5.812  0.1778  0.3947 -0.5717
23393SOL    HW171620   3.248   7.336   5.749  1.0565 -0.1590  0.1601
23393SOL    HW271621   3.309   7.468   5.791  2.1817 -1.0812  1.4851
23394SOL     OW71622   1.136   3.609   1.868  0.0249 -0.0349 -0.1964
23394SOL    HW171623   1.227   3.635   1.878 -0.3218  0.4384  2.4239
23394SOL    HW271624   1.097   3.676   1.811  0.7521  1.2369  0.7548
23395SOL     OW71625   2.763   2.427   2.712  0.2439  0.1854 -0.1176
23395SOL    HW171626   2.852   2.458   2.696  0.1606  0.7918  0.5585
23395SOL    HW271627   2.710   2.470   2.645  0.7882 -2.1774 -2.2516
23396SOL     OW71628   2.107   5.521   7.773 -0.3546 -0.1387 -0.8563
23396SOL    HW171629   2.082   5.449   7.831 -0.0150 -0.2945 -0.8977
23396SOL    HW271630   2.201   5.508   7.759 -0.3225  0.2276 -0.9840
23397SOL     OW71631   4.356   5.007   8.685  0.6231 -0.0831  0.2165
23397SOL    HW171632   4.357   4.996   8.590  1.6523 -1.7881  0.3652
23397SOL    HW271633   4.280   4.957   8.714  0.1539  0.6613  0.2713
23398SOL     OW71634   4.912   1.812   7.756 -0.7020  0.4675  0.0937
23398SOL    HW171635   4.879   1.733   7.799 -1.7477  1.1627  0.6237
23398SOL    HW271636   4.847   1.880   7.778 -0.3023  1.2649 -1.0997
23399SOL     OW71637   6.861   7.067  11.417  0.3399 -0.8317 -0.5493
23399SOL    HW171638   6.780   7.046  11.371 -0.2247 -0.2575  0.1765
23399SOL    HW271639   6.839   7.141  11.473  1.0819 -1.3773  0.4961
23400SOL     OW71640   4.769   3.559   2.049  0.2338 -0.1187 -0.5207
23400SOL    HW171641   4.698   3.586   2.107 -0.0419  0.2853 -1.0356
23400SOL    HW271642   4.839   3.530   2.108  0.1078  0.6528  0.0163
23401SOL     OW71643   5.856   1.038   6.992 -0.2612  0.3941  0.0060
23401SOL    HW171644   5.821   0.989   7.067 -0.1879  2.0075  1.1332
23401SOL    HW271645   5.949   1.018   6.991 -0.2200  0.5535  0.4952
23402SOL     OW71646   3.330   2.722   1.396 -0.0745 -0.1206 -0.8034
23402SOL    HW171647   3.362   2.752   1.311  1.5685 -0.8381 -0.4868
23402SOL    HW271648   3.309   2.803   1.443 -0.3263  0.3094 -1.6369
23403SOL     OW71649   7.397   1.828   5.006  0.0923 -0.0856  0.1591
23403SOL    HW171650   7.396   1.872   4.921 -0.2045 -1.0648 -0.3622
23403SOL    HW271651   7.312   1.848   5.045 -0.7667 -1.5902 -0.8386
23404SOL     OW71652   1.337   2.920   5.045  0.0555  0.5767  0.1138
23404SOL    HW171653   1.300   3.004   5.072  1.1618  0.8866  0.7301
23404SOL    HW271654   1.354   2.931   4.952 -0.6505  0.7159 -0.0012
23405SOL     OW71655   5.337   1.559   7.436  0.6572  0.2149  0.0557
23405SOL    HW171656   5.259   1.536   7.487 -0.0083 -0.2175 -1.1179
23405SOL    HW271657   5.345   1.654   7.446 -1.7688  0.7674 -2.1036
23406SOL     OW71658   0.240   1.172   6.700 -0.0317 -0.0617 -0.1913
23406SOL    HW171659   0.281   1.210   6.622 -2.1511 -0.4684 -1.5596
23406SOL    HW271660   0.297   1.099   6.724  1.3583  0.8723 -0.5288
23407SOL     OW71661   6.503   4.075   5.367  0.0867 -0.5458  0.4006
23407SOL    HW171662   6.580   4.130   5.376  0.2408 -0.7247  0.1906
23407SOL    HW271663   6.455   4.113   5.294  1.3157 -1.9869 -1.2420
23408SOL     OW71664   0.190   0.468   9.066 -1.2558  0.0671 -0.2329
23408SOL    HW171665   0.172   0.543   9.123 -1.5031 -0.9654  1.0933
23408SOL    HW271666   0.252   0.414   9.115  1.4997  0.9007 -2.4984
23409SOL     OW71667   4.033   3.310  10.381  0.0866  0.2082 -0.4918
23409SOL    HW171668   4.118   3.270  10.399  0.3266  0.4472 -1.0564
23409SOL    HW271669   4.031   3.388  10.437  0.3458  0.3381 -0.6621
23410SOL     OW71670   6.124   7.618   0.985  0.0665 -0.6038  0.2006
23410SOL    HW171671   6.092   7.542   1.033 -1.3913  0.9879  1.9402
23410SOL    HW271672   6.050   7.647   0.932  0.4872 -0.2186 -0.1857
23411SOL     OW71673   2.839   0.828   4.520  0.5077  0.2783  0.2090
23411SOL    HW171674   2.836   0.732   4.518  1.7310  0.1913  0.8447
23411SOL    HW271675   2.904   0.851   4.454 -0.9264  0.7901 -1.0632
23412SOL     OW71676   4.881   5.870   2.878 -0.4417 -0.1913 -0.0032
23412SOL    HW171677   4.902   5.829   2.794 -0.4505 -0.9274  0.3408
23412SOL    HW271678   4.963   5.909   2.907 -0.4136 -0.0175 -0.3059
23413SOL     OW71679   7.165   1.661  10.189 -0.0576  0.1392 -0.0411
23413SOL    HW171680   7.136   1.642  10.278 -0.4911 -1.5178 -0.4875
23413SOL    HW271681   7.225   1.590  10.168 -1.6924 -0.8289 -1.8227
23414SOL     OW71682   3.450   3.441   1.861  0.0050  0.1475  0.2456
23414SOL    HW171683   3.380   3.478   1.808 -0.1726  0.8764  0.9744
23414SOL    HW271684   3.465   3.354   1.823 -0.2994  0.5435 -0.8174
23415SOL     OW71685   4.395   7.664   2.913  0.4303  0.0477 -0.9959
23415SOL    HW171686   4.459   7.600   2.943 -0.1424 -0.8374 -1.6041
23415SOL    HW271687   4.440   7.748   2.918  1.1760 -0.3955 -0.1229
23416SOL     OW71688   2.178   6.837  11.204 -0.2168  0.3624 -0.1526
23416SOL    HW171689   2.146   6.922  11.234 -0.2610  0.1030  0.5492
23416SOL    HW271690   2.146   6.774  11.269 -0.3084 -0.2140 -0.7404
23417SOL     OW71691   1.042   7.130   5.923 -0.3249  0.2335 -0.3538
23417SOL    HW171692   1.006   7.059   5.977 -0.4845 -0.0830 -0.8722
23417SOL    HW271693   0.967   7.187   5.906 -0.0890  0.8253  0.5096
23418SOL     OW71694   5.617   0.361   5.628  0.4547  0.1923  0.1396
23418SOL    HW171695   5.630   0.391   5.717 -0.7231  0.5172  0.2245
23418SOL    HW271696   5.639   0.267   5.631  1.2768  0.3894  0.5506
23419SOL     OW71697   5.910   6.543  11.693 -0.3946  0.2478 -0.3992
23419SOL    HW171698   5.968   6.469  11.713 -1.7921 -0.9357 -0.5383
23419SOL    HW271699   5.861   6.515  11.615 -1.2225  1.1572 -0.2310
23420SOL     OW71700   4.498   4.167   2.424 -0.1155 -0.0686  0.0518
23420SOL    HW171701   4.415   4.212   2.408  0.7562  1.1408 -1.3817
23420SOL    HW271702   4.513   4.115   2.345  0.5482 -0.1836  0.2475
23421SOL     OW71703   6.482   7.834   2.081  0.1624  0.2295 -0.0449
23421SOL    HW171704   6.559   7.778   2.066  1.2179  1.4298  0.6758
23421SOL    HW271705   6.411   7.789   2.036  1.4334 -0.5455 -1.3959
23422SOL     OW71706   2.758   0.813  11.265 -0.3121 -0.3105 -0.3298
23422SOL    HW171707   2.851   0.799  11.283  0.2662  0.7667 -2.2098
23422SOL    HW271708   2.713   0.752  11.324  1.5311 -0.3523  1.1388
23423SOL     OW71709   4.997   3.548  11.764 -0.3874  0.0198  0.3667
23423SOL    HW171710   5.009   3.471  11.819  1.5664  0.0421  0.0186
23423SOL    HW271711   5.085   3.570  11.733 -1.2145  0.9596 -1.4714
23424SOL     OW71712   4.855   1.163   4.540 -0.2280  0.1488  0.1725
23424SOL    HW171713   4.790   1.125   4.598 -0.5967  0.4513 -0.0351
23424SOL    HW271714   4.871   1.095   4.474 -1.8005  0.7681 -0.9182
23425SOL     OW71715   5.209   1.756   8.205  0.7320 -0.3518 -0.3886
23425SOL    HW171716   5.212   1.808   8.125 -0.3941 -0.9134 -0.8104
23425SOL    HW271717   5.296   1.716   8.211  0.9938  0.1132 -1.0444
23426SOL     OW71718   4.230   1.022   1.214  0.3932  0.1544 -0.0752
23426SOL    HW171719   4.236   1.010   1.309  1.3018  2.3449  0.1989
23426SOL    HW271720   4.136   1.028   1.197  0.1925 -0.8779  0.5663
23427SOL     OW71721   6.808   6.246   2.464 -0.5179  0.1923 -0.2431
23427SOL    HW171722   6.771   6.166   2.502 -0.8105  0.7071  0.5750
23427SOL    HW271723   6.901   6.242   2.484 -0.2059 -0.7657 -1.6996
23428SOL     OW71724   6.465   5.749   5.082 -0.0433 -0.0476 -0.6714
23428SOL    HW171725   6.439   5.746   4.990  1.4242  0.7424 -1.1378
23428SOL    HW271726   6.401   5.808   5.123 -0.1880  0.2949 -1.3775
23429SOL     OW71727   6.611   7.451   8.520 -0.4401 -0.3427  0.4488
23429SOL    HW171728   6.688   7.397   8.538  0.0258  1.0324  3.2716
23429SOL    HW271729   6.577   7.419   8.437  2.0203 -2.3252  0.0926
23430SOL     OW71730   5.182   2.533   4.469 -0.0232  0.0643  0.2147
23430SOL    HW171731   5.227   2.606   4.425  0.4323 -0.8077 -0.8118
23430SOL    HW271732   5.202   2.546   4.562  2.4325 -0.2890 -0.1790
23431SOL     OW71733   5.544   2.692  10.406 -0.4804 -0.8827  0.3237
23431SOL    HW171734   5.580   2.617  10.453 -0.2230 -1.1333 -0.2532
23431SOL    HW271735   5.461   2.711  10.449 -2.0649 -3.4096 -1.3644
23432SOL     OW71736   5.876   2.396  10.672 -0.4040 -0.1251  0.0450
23432SOL    HW171737   5.895   2.303  10.684 -1.9536 -0.4751 -0.0486
23432SOL    HW271738   5.934   2.423  10.601 -0.1829 -1.0860 -0.1613
23433SOL     OW71739   2.871   2.650   3.892  0.2322 -0.3228 -0.0869
23433SOL    HW171740   2.849   2.562   3.863  1.5379 -0.3050 -1.2133
23433SOL    HW271741   2.965   2.658   3.876  0.1962  1.1633  0.3123
23434SOL     OW71742   2.761   3.266   7.716  0.3866  0.2103  0.0930
23434SOL    HW171743   2.706   3.192   7.692 -1.2612  1.4658 -0.1355
23434SOL    HW271744   2.705   3.322   7.770  1.8837  0.8459  1.0782
23435SOL     OW71745   7.732   4.941   7.678 -0.3876  0.0195  0.2131
23435SOL    HW171746   7.710   5.031   7.655  0.2217  0.3130  0.7546
23435SOL    HW271747   7.651   4.905   7.716 -0.6117  0.3492  0.0502
23436SOL     OW71748   4.353   6.356   3.242 -0.2301 -0.1191  0.2601
23436SOL    HW171749   4.296   6.426   3.274  2.7522  2.5445  0.3245
23436SOL    HW271750   4.361   6.296   3.316 -1.9536  0.0631  0.6299
23437SOL     OW71751   6.746   0.340   9.571 -0.1145  0.3232  0.2286
23437SOL    HW171752   6.822   0.285   9.589  1.4432  1.3300 -2.7288
23437SOL    HW271753   6.671   0.284   9.594  1.3860 -2.8075 -1.7002
23438SOL     OW71754   0.877   1.202  10.564 -0.4049 -0.0686  0.3752
23438SOL    HW171755   0.965   1.190  10.598 -1.1122  1.2358  2.9538
23438SOL    HW271756   0.869   1.296  10.550 -0.9000 -0.3432 -1.3888
23439SOL     OW71757   3.582   2.672   0.898 -0.1788  0.3468  0.0536
23439SOL    HW171758   3.597   2.599   0.958 -0.3801  1.2591  1.2628
23439SOL    HW271759   3.637   2.653   0.822 -0.7839 -1.4057  0.0242
23440SOL     OW71760   5.107   6.775   8.385 -0.0512  0.1514 -0.1161
23440SOL    HW171761   5.012   6.769   8.373 -0.2137  2.0243 -0.0904
23440SOL    HW271762   5.127   6.712   8.453 -1.4072  0.3105  0.4578
23441SOL     OW71763   1.878   7.240   1.177  0.4159 -0.5556 -0.1703
23441SOL    HW171764   1.921   7.290   1.246  2.2961 -0.9681 -0.9661
23441SOL    HW271765   1.869   7.302   1.105  1.2407 -0.8981 -0.5825
23442SOL     OW71766   2.023   4.197   3.967  0.0475  0.2851  0.4087
23442SOL    HW171767   1.944   4.168   4.012 -0.2938  0.6680  0.0690
23442SOL    HW271768   2.048   4.122   3.911  0.4214 -0.1533  1.1495
23443SOL     OW71769   1.456   4.238   3.791  0.7285 -0.5497 -0.5020
23443SOL    HW171770   1.538   4.287   3.803  0.5435 -0.4699  0.4692
23443SOL    HW271771   1.485   4.154   3.755  1.2454 -0.5181 -0.1807
23444SOL     OW71772   5.697   7.170   2.010 -0.0605 -0.0497  0.4323
23444SOL    HW171773   5.711   7.256   1.970  1.5347  0.0361  1.1097
23444SOL    HW271774   5.661   7.117   1.939  0.7542  0.6539 -0.5457
23445SOL     OW71775   2.608   7.528   9.285 -0.1639  0.0994  0.0834
23445SOL    HW171776   2.605   7.553   9.378  1.7155  0.7690 -0.0008
23445SOL    HW271777   2.661   7.595   9.243 -1.9619  0.4673 -1.7478
23446SOL     OW71778   5.300   6.841   7.078  0.0438 -0.1509  0.6187
23446SOL    HW171779   5.228   6.786   7.047  1.2628 -1.9867  0.9089
23446SOL    HW271780   5.300   6.916   7.019 -1.5880 -0.4956  0.1238
23447SOL     OW71781   6.402   0.631  10.891 -0.5178 -0.0262  0.5744
23447SOL    HW171782   6.378   0.641  10.983  1.2617 -0.8271  1.1612
23447SOL    HW271783   6.424   0.720  10.862 -1.0117  0.2157  0.9139
23448SOL     OW71784   7.606   7.270   2.999  0.0006  0.0652  0.6971
23448SOL    HW171785   7.647   7.354   3.017 -1.1334  0.5868  0.9322
23448SOL    HW271786   7.528   7.292   2.947 -1.2949 -0.6542  2.2684
23449SOL     OW71787   4.733   1.646   7.945  0.1142 -0.3749 -0.0078
23449SOL    HW171788   4.784   1.679   8.019  0.8898 -1.7129  0.0848
23449SOL    HW271789   4.643   1.672   7.965  0.3632 -0.3631  1.2097
23450SOL     OW71790   4.310   0.703   0.027 -0.1757 -0.0462 -0.3371
23450SOL    HW171791   4.318   0.789   0.070  2.2833  0.8139 -2.2766
23450SOL    HW271792   4.270   0.722  -0.058 -3.1927 -1.4616  0.6117
23451SOL     OW71793   2.438   5.904   1.247  0.3328 -0.0291  0.3211
23451SOL    HW171794   2.495   5.963   1.198 -0.2096  1.3885  1.3232
23451SOL    HW271795   2.494   5.830   1.272  1.3342  0.6252  0.0428
23452SOL     OW71796   2.906   0.157   0.602 -0.5959 -0.3649  0.0834
23452SOL    HW171797   2.861   0.240   0.622 -0.6167 -0.1984 -0.6556
23452SOL    HW271798   2.877   0.098   0.672 -1.2334  0.0128  0.1481
23453SOL     OW71799   0.483   5.742  11.721  0.4279  0.1650 -0.0814
23453SOL    HW171800   0.393   5.771  11.734  0.0781 -0.1735 -1.6117
23453SOL    HW271801   0.536   5.818  11.746 -0.2552  0.3376  0.9141
23454SOL     OW71802   3.506   6.433   0.141 -0.2415  0.1043  0.1842
23454SOL    HW171803   3.416   6.424   0.174 -0.6440 -1.5581 -1.2436
23454SOL    HW271804   3.560   6.433   0.221 -1.3222 -1.6952  0.9706
23455SOL     OW71805   1.271   7.892   2.775 -0.1975  0.0661 -0.3053
23455SOL    HW171806   1.244   7.859   2.860 -0.6021 -1.5848 -1.0226
23455SOL    HW271807   1.367   7.897   2.781 -0.2690  0.5772  0.4462
23456SOL     OW71808   6.206   3.081   0.204 -0.1389  0.1313 -0.1385
23456SOL    HW171809   6.185   2.998   0.162  0.5564  0.1607 -0.5576
23456SOL    HW271810   6.147   3.086   0.280  0.3007 -1.0766  0.2986
23457SOL     OW71811   5.964   2.632   5.971 -0.2093 -0.0385  0.3015
23457SOL    HW171812   6.048   2.593   5.946 -0.8184 -0.5321 -1.0913
23457SOL    HW271813   5.966   2.720   5.931 -0.7846 -0.4632 -0.7037
23458SOL     OW71814   1.107   2.519   8.401  0.7654  0.0899 -0.6397
23458SOL    HW171815   1.072   2.432   8.418 -0.6637  0.3179 -2.1526
23458SOL    HW271816   1.200   2.513   8.423  0.4405 -1.4372  0.4669
23459SOL     OW71817   6.077   3.667  10.509  0.1758 -0.6555  0.3209
23459SOL    HW171818   6.090   3.743  10.452 -0.5676 -1.2407 -0.6417
23459SOL    HW271819   6.161   3.658  10.555  0.5917  0.1756 -0.2442
23460SOL     OW71820   4.473   7.775   1.921  0.4696 -0.2325  0.4162
23460SOL    HW171821   4.509   7.698   1.877  1.6641  0.4193  0.2086
23460SOL    HW271822   4.422   7.820   1.852 -0.6883 -1.0959  0.6820
23461SOL     OW71823   1.805   4.099   2.852  0.1181  0.0706  0.2691
23461SOL    HW171824   1.873   4.151   2.810 -0.2887  0.3552 -0.0478
23461SOL    HW271825   1.723   4.134   2.816 -0.3004  0.9620  2.0011
23462SOL     OW71826   0.550   5.028   5.501  0.1134  0.1874  0.0574
23462SOL    HW171827   0.623   5.058   5.448 -1.7190  1.9167 -1.6834
23462SOL    HW271828   0.567   5.062   5.589  1.9070 -0.4335 -0.0215
23463SOL     OW71829   7.438   7.653   6.547  0.1593  0.0702  0.7289
23463SOL    HW171830   7.505   7.720   6.559 -0.4232  0.4976  1.7071
23463SOL    HW271831   7.486   7.575   6.520  0.8290  0.9095 -0.6171
23464SOL     OW71832   7.181   2.604   4.638  0.1276 -0.1274  0.5391
23464SOL    HW171833   7.194   2.628   4.730 -1.8774  0.2554  0.7779
23464SOL    HW271834   7.089   2.625   4.621 -0.1096 -2.1015 -0.9837
23465SOL     OW71835   5.503   0.202   7.050 -0.1810  0.1087  0.1350
23465SOL    HW171836   5.454   0.139   6.998  0.9065 -0.2234 -0.5229
23465SOL    HW271837   5.548   0.149   7.116  0.8479  0.1579 -0.5090
23466SOL     OW71838   1.389   6.342   7.705  0.3468  0.1112 -0.1185
23466SOL    HW171839   1.334   6.383   7.639  1.1171 -0.2192 -0.9861
23466SOL    HW271840   1.328   6.306   7.769 -0.5240 -1.2542 -1.6330
23467SOL     OW71841   4.067   5.492   0.699 -0.3390 -0.6272  0.5264
23467SOL    HW171842   4.065   5.441   0.779 -1.7826  0.2782  1.1022
23467SOL    HW271843   3.993   5.552   0.706  0.1961  0.2802 -0.9560
23468SOL     OW71844   3.514   3.964  11.408  0.0788  0.3946 -0.1205
23468SOL    HW171845   3.463   4.003  11.479 -0.3977  1.1729 -0.8771
23468SOL    HW271846   3.557   4.039  11.366  0.3121 -0.0554 -0.6918
23469SOL     OW71847   4.278   0.839   5.265 -0.1030 -0.0145  0.0456
23469SOL    HW171848   4.333   0.805   5.335  2.4948  0.6213 -1.5571
23469SOL    HW271849   4.242   0.921   5.299  0.7965  0.0807  0.7932
23470SOL     OW71850   7.918   2.172   6.727  0.1280 -0.0737 -0.1177
23470SOL    HW171851   7.914   2.111   6.801 -0.3156 -1.8516 -1.5541
23470SOL    HW271852   7.836   2.220   6.731 -0.0804 -0.4574  0.2862
23471SOL     OW71853   2.506   4.221  12.351  0.7788  0.9143 -0.0176
23471SOL    HW171854   2.424   4.265  12.329  0.9372  0.7077 -1.0862
23471SOL    HW271855   2.556   4.286  12.401 -0.2413  0.8522  1.1135
23472SOL     OW71856   1.324   3.187   9.661 -0.6991  0.2356 -0.3037
23472SOL    HW171857   1.317   3.093   9.649 -2.4680  0.0893  1.4278
23472SOL    HW271858   1.262   3.224   9.598  1.1494  0.4272 -2.1454
23473SOL     OW71859   6.196   4.075   7.724  0.2079 -0.1227 -0.8349
23473SOL    HW171860   6.262   4.010   7.746 -0.9771 -2.0968 -2.7256
23473SOL    HW271861   6.243   4.141   7.672  0.9813 -0.7262 -0.9174
23474SOL     OW71862   0.726   7.775   7.621 -0.4817  0.1156  0.3723
23474SOL    HW171863   0.659   7.738   7.563 -1.0504  1.0162  0.4311
23474SOL    HW271864   0.677   7.802   7.699 -0.0209  0.6345  0.4854
23475SOL     OW71865   3.436   2.813   5.236  0.5756 -0.5078  0.3574
23475SOL    HW171866   3.515   2.777   5.277  0.7014 -0.3414  0.2583
23475SOL    HW271867   3.467   2.888   5.186  0.2437  0.0445  0.9618
23476SOL     OW71868   2.889   1.415   2.181 -0.1711 -0.1674 -0.8776
23476SOL    HW171869   2.835   1.354   2.132  1.0008  0.7093 -3.4228
23476SOL    HW271870   2.971   1.420   2.132  0.7035  1.5637  0.6202
23477SOL     OW71871   2.616   4.442   7.192 -0.6634  0.9429 -0.2837
23477SOL    HW171872   2.706   4.439   7.160  0.0721 -1.3812  1.6428
23477SOL    HW271873   2.569   4.494   7.128  1.8692  1.4932 -1.8263
23478SOL     OW71874   3.447   7.617   1.858  0.4049 -0.1642  0.1349
23478SOL    HW171875   3.392   7.651   1.928 -0.6170  0.5301 -0.9664
23478SOL    HW271876   3.466   7.526   1.884 -0.3856 -0.0848  1.0434
23479SOL     OW71877   6.935   0.150   1.331 -0.6539  0.5634  0.1074
23479SOL    HW171878   7.019   0.173   1.371  0.3158 -0.8239 -1.0216
23479SOL    HW271879   6.950   0.063   1.293 -2.1308  0.9638 -1.5009
23480SOL     OW71880   7.587   5.813   1.926 -0.5368  0.3614 -0.0819
23480SOL    HW171881   7.604   5.907   1.927  1.4194  0.0495 -0.6119
23480SOL    HW271882   7.582   5.791   1.833 -4.0288  0.3772 -0.0095
23481SOL     OW71883   7.649   4.928   3.517 -0.1490 -0.1560 -0.7870
23481SOL    HW171884   7.735   4.896   3.545 -0.2423 -1.1025 -1.5463
23481SOL    HW271885   7.654   5.023   3.531 -0.2835 -0.5142  2.6530
23482SOL     OW71886   0.750   4.689   3.041 -0.1288  0.0505  0.2723
23482SOL    HW171887   0.739   4.738   3.123  1.0971  1.0012 -0.1110
23482SOL    HW271888   0.839   4.655   3.045 -0.6132 -1.3176  0.0623
23483SOL     OW71889   1.120   1.473  10.724  0.4496 -0.0925 -0.3204
23483SOL    HW171890   1.048   1.455  10.663  0.1625  0.2285 -0.0796
23483SOL    HW271891   1.078   1.481  10.810  0.8996 -0.9337 -0.0095
23484SOL     OW71892   3.924   7.275   4.028  0.3070 -0.0787 -0.1994
23484SOL    HW171893   3.837   7.296   3.995 -0.0540 -2.7018 -1.1072
23484SOL    HW271894   3.983   7.334   3.981 -0.8527  0.9736 -0.3700
23485SOL     OW71895   7.109   6.482   9.276  0.1188 -0.4142  0.1504
23485SOL    HW171896   7.184   6.519   9.323  0.2809 -0.1231 -0.3377
23485SOL    HW271897   7.047   6.554   9.269 -0.3571 -0.7349  0.8329
23486SOL     OW71898   5.477   7.296  10.171 -0.2076 -0.2274 -0.2033
23486SOL    HW171899   5.471   7.238  10.096 -2.4109 -1.1682  0.6169
23486SOL    HW271900   5.396   7.348  10.168 -1.2854 -1.5654  2.4603
23487SOL     OW71901   3.724   2.021   7.925 -0.2465 -0.5844  0.0937
23487SOL    HW171902   3.799   2.017   7.984 -0.8712 -0.1033  0.9382
23487SOL    HW271903   3.648   2.010   7.982 -0.9276  1.1831 -0.4237
23488SOL     OW71904   7.891   3.396   2.681  0.0825 -0.7004  0.0181
23488SOL    HW171905   7.797   3.386   2.692 -0.7332  0.6688 -4.0632
23488SOL    HW271906   7.924   3.307   2.674 -1.0841 -1.1693  0.2489
23489SOL     OW71907   6.806   6.426   9.645 -0.1569 -0.1367 -0.1220
23489SOL    HW171908   6.874   6.375   9.600 -0.9703  0.4316 -2.1068
23489SOL    HW271909   6.852   6.502   9.681  0.4709 -0.4480 -0.2631
23490SOL     OW71910   6.346   4.419   7.231  0.5577 -0.1004  0.1722
23490SOL    HW171911   6.391   4.417   7.315  0.9744 -0.3522 -0.0521
23490SOL    HW271912   6.296   4.337   7.229 -1.0467  0.8284  1.0251
23491SOL     OW71913   2.549   7.824   0.582  0.2276 -0.2316 -0.1455
23491SOL    HW171914   2.636   7.833   0.619 -0.0187 -0.8572  0.6312
23491SOL    HW271915   2.491   7.861   0.649 -0.1526 -0.5395 -0.2977
23492SOL     OW71916   1.018   1.990   8.106  0.6783  0.0156  0.8738
23492SOL    HW171917   1.052   2.077   8.086  0.1599  0.1799  0.7069
23492SOL    HW271918   1.036   1.978   8.200 -0.3967  0.8235  1.1943
23493SOL     OW71919   0.017   4.710   2.737 -0.8562 -0.4410  0.4066
23493SOL    HW171920   0.013   4.617   2.717 -0.6881 -0.4257  0.2995
23493SOL    HW271921  -0.001   4.754   2.654 -1.5276 -0.3765  0.5814
23494SOL     OW71922   6.601   3.240  11.148  0.2714  0.2250  0.3351
23494SOL    HW171923   6.663   3.285  11.205  1.0850 -1.5859  0.9726
23494SOL    HW271924   6.621   3.272  11.060  1.5727  0.2730  0.6326
23495SOL     OW71925   5.659   4.703   2.837 -0.1988 -0.3482 -0.3654
23495SOL    HW171926   5.729   4.670   2.894  0.4193  1.2018 -0.1732
23495SOL    HW271927   5.615   4.625   2.804  2.4982 -1.4796 -1.5945
23496SOL     OW71928   4.793   3.231  11.075 -0.3326  0.1134 -0.4198
23496SOL    HW171929   4.815   3.240  10.982 -0.9143  0.9844 -0.4883
23496SOL    HW271930   4.804   3.320  11.110 -1.1289  0.0048  0.1115
23497SOL     OW71931   0.358   6.960  12.310 -0.3853 -0.6346  0.4640
23497SOL    HW171932   0.418   6.899  12.268  0.2575 -0.0913  0.5770
23497SOL    HW271933   0.305   6.995  12.239 -0.5010 -1.0410  0.3489
23498SOL     OW71934   4.887   1.090   5.770  0.1521 -0.2024  0.4173
23498SOL    HW171935   4.912   1.103   5.862  0.8696 -2.2996  0.5692
23498SOL    HW271936   4.939   1.154   5.722 -0.2672  0.9538  1.4577
23499SOL     OW71937   2.296   0.645   4.841 -0.8240  0.6777 -0.0356
23499SOL    HW171938   2.349   0.719   4.810  0.1724 -0.4902 -1.2137
23499SOL    HW271939   2.208   0.663   4.806 -0.7816  1.6767  0.3379
23500SOL     OW71940   2.396   4.585   1.771 -0.2040 -0.4703  0.0264
23500SOL    HW171941   2.309   4.622   1.755 -0.7404 -1.4573  0.5851
23500SOL    HW271942   2.434   4.575   1.683 -0.9132 -0.6566 -0.2621
23501SOL     OW71943   2.962   3.352   1.962  0.1758 -0.2293 -0.4122
23501SOL    HW171944   2.883   3.387   2.003 -0.1946 -3.0415  1.5314
23501SOL    HW271945   2.967   3.397   1.878 -1.4394  2.6670  0.8861
23502SOL     OW71946   0.779   0.074   9.468 -0.2420  0.2676  0.4664
23502SOL    HW171947   0.754   0.014   9.397 -0.1020  0.9039 -0.1347
23502SOL    HW271948   0.869   0.101   9.446 -1.3093  3.0865 -1.0189
23503SOL     OW71949   3.684   6.733   8.490 -0.0046  0.4564  0.2937
23503SOL    HW171950   3.778   6.744   8.501 -0.1325 -0.4923  3.1525
23503SOL    HW271951   3.646   6.772   8.569 -1.9049 -0.4781 -0.1020
23504SOL     OW71952   3.661   3.824   6.656 -0.1345  0.1896  0.1606
23504SOL    HW171953   3.572   3.798   6.635 -0.6069  1.2773  0.7160
23504SOL    HW271954   3.707   3.742   6.672 -0.9087 -0.4101 -0.5893
23505SOL     OW71955   7.064   5.554   3.413 -0.3744 -0.3834  0.3589
23505SOL    HW171956   6.976   5.556   3.375  0.3282  0.2416 -1.3101
23505SOL    HW271957   7.113   5.619   3.363  1.1339 -0.9792  1.0213
23506SOL     OW71958   2.936   1.476  10.427 -0.2735 -0.3555 -0.4624
23506SOL    HW171959   2.927   1.393  10.381  0.4179 -0.7325  0.0698
23506SOL    HW271960   2.857   1.482  10.481  0.6447 -1.7411  1.1605
23507SOL     OW71961   7.384   7.857   0.413  0.3505  0.3477  0.1509
23507SOL    HW171962   7.305   7.897   0.449  0.1811 -1.6766  2.3556
23507SOL    HW271963   7.353   7.801   0.342 -0.0041  0.7351  0.0035
23508SOL     OW71964   7.354   2.493   6.477  0.0365 -0.0539  0.0438
23508SOL    HW171965   7.314   2.406   6.480 -0.5150  0.2148  0.7340
23508SOL    HW271966   7.396   2.497   6.391 -1.6204 -0.2636 -0.8032
23509SOL     OW71967   7.532   6.225   5.711 -0.0533 -0.5552 -0.1390
23509SOL    HW171968   7.447   6.245   5.751 -0.1898  0.5027 -0.9217
23509SOL    HW271969   7.596   6.269   5.768 -0.0443 -1.1884  0.3407
23510SOL     OW71970   0.682   5.934   2.657  0.3600  0.1200 -0.4990
23510SOL    HW171971   0.618   5.966   2.719  0.9504 -0.9560  0.7131
23510SOL    HW271972   0.727   5.863   2.703  2.1688  0.6009 -1.4321
23511SOL     OW71973   3.585   0.543  11.208 -0.5876  0.4552  0.2430
23511SOL    HW171974   3.628   0.459  11.222  1.2841  0.5845 -3.5641
23511SOL    HW271975   3.493   0.519  11.190 -0.4070 -0.5953  0.6133
23512SOL     OW71976   0.688   5.617   4.157  0.3279 -0.1355 -0.0204
23512SOL    HW171977   0.722   5.640   4.243 -1.9105  0.9824  0.6476
23512SOL    HW271978   0.713   5.525   4.145  0.2654 -0.4739  2.0673
23513SOL     OW71979   4.329   4.398   1.020  0.1091 -0.3613  0.3508
23513SOL    HW171980   4.259   4.463   1.025 -1.0260 -1.6232  2.2354
23513SOL    HW271981   4.358   4.386   1.110  1.0827 -1.6287 -0.0939
23514SOL     OW71982   5.034   6.559   2.998  0.0990 -0.2097 -0.1025
23514SOL    HW171983   5.116   6.608   3.008 -1.2782  2.1971  0.2671
23514SOL    HW271984   5.001   6.585   2.912  0.1673 -1.9104 -0.6652
23515SOL     OW71985   5.575   6.451   7.828  0.3766  0.4572  0.6275
23515SOL    HW171986   5.518   6.374   7.833  0.0850  0.6375  0.1287
23515SOL    HW271987   5.617   6.444   7.742  1.6514 -0.0462  1.2589
23516SOL     OW71988   0.797   5.334  10.783 -0.0525 -0.1410 -0.1788
23516SOL    HW171989   0.818   5.261  10.726 -1.2044  1.2351 -2.4979
23516SOL    HW271990   0.879   5.382  10.794 -0.1456  0.5645 -2.2245
23517SOL     OW71991   1.401   3.961   9.684 -0.1836 -0.0867 -0.1161
23517SOL    HW171992   1.406   3.893   9.751 -1.5041 -0.0820  0.0145
23517SOL    HW271993   1.424   3.917   9.602 -0.5660 -0.5807  0.0407
23518SOL     OW71994   3.182   6.012   8.670  0.5361 -0.0611  0.2136
23518SOL    HW171995   3.256   5.954   8.653  2.2015  1.8400  0.5104
23518SOL    HW271996   3.139   6.022   8.585  2.2363  0.8156 -0.5949
23519SOL     OW71997   4.251   2.284   6.494 -0.7409 -0.0902 -0.1351
23519SOL    HW171998   4.236   2.339   6.417  1.3627 -0.3514 -0.8057
23519SOL    HW271999   4.338   2.247   6.481 -0.1890  0.0327  2.4761
23520SOL     OW72000   0.403   4.254   2.341  0.1815 -0.4627  0.2197
23520SOL    HW172001   0.393   4.205   2.260 -0.2087 -0.8723  0.5135
23520SOL    HW272002   0.345   4.329   2.331 -2.9089 -2.4711  1.6363
23521SOL     OW72003   6.624   2.321   5.268 -0.0092  0.4198 -0.4239
23521SOL    HW172004   6.540   2.319   5.315  0.4951  0.8959  0.5180
23521SOL    HW272005   6.604   2.367   5.186 -1.1458 -1.3926 -1.2276
23522SOL     OW72006   7.413   7.879   3.574 -0.7653  0.1234 -0.2829
23522SOL    HW172007   7.407   7.972   3.551  0.1636  0.6309  1.3388
23522SOL    HW272008   7.439   7.836   3.492  2.1138  1.7647 -0.3587
23523SOL     OW72009   4.776   7.251   0.002 -0.4397 -0.0754  0.3707
23523SOL    HW172010   4.806   7.183  -0.058  1.3276 -0.0182  1.1207
23523SOL    HW272011   4.763   7.328  -0.053  3.7239  0.7637  0.2357
23524SOL     OW72012   0.600   1.329   8.052  0.4149 -0.6649 -0.3314
23524SOL    HW172013   0.650   1.346   8.132  1.2537 -1.2791 -0.7113
23524SOL    HW272014   0.642   1.385   7.986 -1.1111  0.8747 -0.0843
23525SOL     OW72015   2.840   1.718  11.374 -0.3824  0.6470 -0.1691
23525SOL    HW172016   2.747   1.718  11.353 -0.3256  0.8434 -0.4270
23525SOL    HW272017   2.883   1.747  11.293 -0.0721  0.1978 -0.1704
23526SOL     OW72018   2.312   3.331   7.386 -0.1386 -0.4097 -0.3959
23526SOL    HW172019   2.266   3.247   7.398 -0.8708  0.2565  2.1440
23526SOL    HW272020   2.262   3.393   7.439  1.6645  1.1603 -0.4289
23527SOL     OW72021   5.943   7.453   2.404  0.5457 -0.2143 -0.1351
23527SOL    HW172022   5.949   7.402   2.485 -1.5209 -2.4740 -1.2842
23527SOL    HW272023   5.886   7.526   2.426 -0.9302 -1.4198  0.2332
23528SOL     OW72024   5.508   2.014   8.087  0.1315  0.2969  0.2348
23528SOL    HW172025   5.582   1.969   8.046  1.2699  1.0488  1.3899
23528SOL    HW272026   5.535   2.027   8.178 -1.1177  1.2515  0.4975
23529SOL     OW72027   6.843   3.527   8.435 -0.2771 -0.7108  0.2895
23529SOL    HW172028   6.808   3.438   8.433  0.0250 -0.8165 -0.6374
23529SOL    HW272029   6.932   3.519   8.401 -0.3322 -0.0186 -0.0358
23530SOL     OW72030   4.381   5.251   9.530  0.0225 -0.0120  0.3132
23530SOL    HW172031   4.410   5.176   9.477  1.6866 -0.2679  1.5011
23530SOL    HW272032   4.437   5.248   9.608 -0.5575  1.9034  0.8504
23531SOL     OW72033   5.951   0.502   8.891  0.4710  0.1375  0.1504
23531SOL    HW172034   5.990   0.531   8.973 -0.1557  2.8513 -0.4053
23531SOL    HW272035   5.970   0.408   8.887  1.8029  0.2135  2.6427
23532SOL     OW72036   0.622   3.509   5.987 -0.6632 -0.5607 -0.2350
23532SOL    HW172037   0.551   3.506   6.051 -2.4166 -4.0606 -2.0435
23532SOL    HW272038   0.612   3.595   5.945 -1.7513  0.3242  1.6756
23533SOL     OW72039   6.185   5.534   7.513  0.0604 -0.2665 -0.5933
23533SOL    HW172040   6.111   5.477   7.490  0.0778 -0.8839  0.7881
23533SOL    HW272041   6.257   5.475   7.532 -0.4517  0.0117  2.7703
23534SOL     OW72042   4.795   4.986   5.564 -0.3925 -0.2329  0.1953
23534SOL    HW172043   4.750   5.055   5.613 -1.7558 -1.9192  1.4320
23534SOL    HW272044   4.739   4.971   5.487  0.2407  0.4638 -0.4074
23535SOL     OW72045   5.270   6.218   3.798  0.0324  0.4333 -0.5674
23535SOL    HW172046   5.326   6.288   3.765  0.1841  1.2497  1.2669
23535SOL    HW272047   5.320   6.179   3.870 -1.1146  0.1700  0.1172
23536SOL     OW72048   7.391   0.335   7.589 -0.1749 -0.3960 -0.0514
23536SOL    HW172049   7.426   0.260   7.541 -2.9440 -1.5851 -0.3897
23536SOL    HW272050   7.369   0.301   7.676 -0.5997  0.2419  0.1055
23537SOL     OW72051   5.267   6.543   0.670  0.3488  0.0924  0.2279
23537SOL    HW172052   5.339   6.489   0.637  2.2387  1.3428  2.0438
23537SOL    HW272053   5.310   6.618   0.711 -2.0368  1.0974  1.0840
23538SOL     OW72054   5.881   3.148   2.135  0.2629  0.2132  0.3035
23538SOL    HW172055   5.871   3.125   2.042  1.7280  0.9609 -0.0710
23538SOL    HW272056   5.792   3.167   2.165 -0.2347 -0.0687 -0.9329
23539SOL     OW72057   7.273   4.830  11.824  0.1000  1.1800  0.2767
23539SOL    HW172058   7.303   4.920  11.841  1.8507  0.8928 -0.9656
23539SOL    HW272059   7.242   4.832  11.734  3.4920 -0.1528 -1.0695
23540SOL     OW72060   2.371   0.130   3.381  0.0670 -0.1609  0.1131
23540SOL    HW172061   2.369   0.113   3.287  0.2887  0.5582 -0.0287
23540SOL    HW272062   2.439   0.071   3.415 -2.8742 -3.6931  0.5504
23541SOL     OW72063   7.176   6.658   7.163 -0.2227 -0.3689 -0.7145
23541SOL    HW172064   7.138   6.586   7.212  0.6710 -0.9783 -0.8861
23541SOL    HW272065   7.165   6.633   7.071  1.2669 -0.9412 -0.7589
23542SOL     OW72066   5.076   4.160   2.681  0.1364  0.5284 -0.6773
23542SOL    HW172067   5.124   4.131   2.758 -0.9738 -0.9435 -0.4904
23542SOL    HW272068   5.036   4.243   2.708  0.3967  0.4206  0.0587
23543SOL     OW72069   6.032   1.005   2.813 -0.6684  0.0266 -0.7271
23543SOL    HW172070   6.122   1.002   2.780 -0.0170 -1.5442  1.0116
23543SOL    HW272071   6.017   1.096   2.836  1.7022 -0.1232  1.9482
23544SOL     OW72072   3.107   7.708   4.282  0.2579  0.2779 -0.1949
23544SOL    HW172073   3.051   7.781   4.309  1.6737  1.3846 -0.1714
23544SOL    HW272074   3.169   7.698   4.353  1.4866  0.5510 -1.1992
23545SOL     OW72075   7.686   0.417   3.593 -0.4621 -0.2438 -0.0069
23545SOL    HW172076   7.724   0.476   3.529 -0.5388  0.2164  0.3659
23545SOL    HW272077   7.732   0.334   3.581 -0.9579 -0.3759 -1.1321
23546SOL     OW72078   6.490   6.914   1.454 -0.0123  0.3884  0.8494
23546SOL    HW172079   6.427   6.856   1.496 -1.0045 -1.3913 -2.6796
23546SOL    HW272080   6.442   6.996   1.441 -1.4804 -0.7003 -1.1059
23547SOL     OW72081   5.477   7.202  12.416 -0.2997  0.1956 -0.6376
23547SOL    HW172082   5.533   7.210  12.494  0.5882  2.3769 -1.4459
23547SOL    HW272083   5.420   7.127  12.436  2.4814 -1.8176  0.4632
23548SOL     OW72084   4.989   5.720   6.124  0.0397 -0.3030  0.0845
23548SOL    HW172085   4.998   5.811   6.095 -0.0867  0.4511  2.2782
23548SOL    HW272086   5.059   5.707   6.188  0.9128 -2.2213 -1.1448
23549SOL     OW72087   0.966   7.500   6.897 -0.3226 -0.1503 -0.4166
23549SOL    HW172088   0.962   7.476   6.804 -2.0760 -2.0682  0.0797
23549SOL    HW272089   0.880   7.477   6.932 -0.0620  1.5146  1.4926
23550SOL     OW72090   0.352   6.273   7.131  0.2717 -0.4434  0.0834
23550SOL    HW172091   0.341   6.220   7.052  0.9610  0.2092 -0.4661
23550SOL    HW272092   0.288   6.238   7.193 -0.3647 -0.8765 -0.8083
23551SOL     OW72093   6.241   2.421   6.884  0.1105  0.4324  0.4984
23551SOL    HW172094   6.305   2.492   6.887  0.4202  0.2523 -1.0340
23551SOL    HW272095   6.162   2.461   6.847  0.0235  0.1594  0.3871
23552SOL     OW72096   2.622   6.573  12.178 -0.2019  0.2332  0.0477
23552SOL    HW172097   2.538   6.603  12.212 -0.9644 -0.3711 -1.2366
23552SOL    HW272098   2.636   6.625  12.099  0.1572 -0.3545 -0.2826
23553SOL     OW72099   6.957   1.808  11.276  0.0255 -0.0342 -0.2803
23553SOL    HW172100   7.005   1.890  11.266  1.0388 -0.6116 -0.2433
23553SOL    HW272101   6.866   1.831  11.255  0.1034  1.3115  0.7005
23554SOL     OW72102   5.953   5.261   2.777  0.1470 -0.7587  0.1068
23554SOL    HW172103   5.863   5.290   2.764  1.1837  3.0270  0.1494
23554SOL    HW272104   5.979   5.225   2.692 -0.3171  1.7323 -1.1919
23555SOL     OW72105   5.087   7.300   2.788  0.2620 -0.4133 -0.3413
23555SOL    HW172106   5.040   7.347   2.857 -0.6008  0.5197 -1.5176
23555SOL    HW272107   5.051   7.211   2.792 -0.6169 -0.0752 -0.3059
23556SOL     OW72108   5.486   4.213   0.995 -0.6211  0.1106 -0.5039
23556SOL    HW172109   5.423   4.260   0.940 -0.1008 -0.1017 -1.2943
23556SOL    HW272110   5.531   4.154   0.935  0.6973  0.6260 -0.0433
23557SOL     OW72111   6.484   0.726   2.689 -0.1610 -0.9480 -0.0826
23557SOL    HW172112   6.547   0.655   2.686  0.6622 -0.2539  0.3387
23557SOL    HW272113   6.521   0.794   2.633 -0.4091 -0.4385  0.3554
23558SOL     OW72114   4.731   5.921   9.404  0.1411  0.2400 -0.3902
23558SOL    HW172115   4.782   5.923   9.485  1.5904 -1.0580 -1.2275
23558SOL    HW272116   4.657   5.864   9.425 -0.5124  1.3620  0.5349
23559SOL     OW72117   5.407   2.342   1.937 -0.2752  0.4706 -0.0996
23559SOL    HW172118   5.395   2.340   1.842  1.1043 -0.4987 -0.2887
23559SOL    HW272119   5.498   2.369   1.948 -0.0510 -0.6118  0.8913
23560SOL     OW72120   0.399   3.796   8.412 -0.1342 -0.3434 -0.3085
23560SOL    HW172121   0.325   3.735   8.417 -0.4539 -0.0184 -1.0010
23560SOL    HW272122   0.364   3.873   8.367 -0.2258  1.0715  2.0286
23561SOL     OW72123   1.712   0.452   8.535  0.3362 -0.2044  0.7892
23561SOL    HW172124   1.754   0.396   8.470 -0.2783  1.7465 -1.4436
23561SOL    HW272125   1.730   0.541   8.504 -2.0128  0.7666  2.0041
23562SOL     OW72126   6.873   4.565   9.903  0.2758  0.2988 -0.1069
23562SOL    HW172127   6.931   4.599   9.835  0.4519 -0.5390 -0.3807
23562SOL    HW272128   6.835   4.644   9.942  0.6802  0.8171 -0.7224
23563SOL     OW72129   7.852   4.788   9.670 -0.6847  0.3497 -0.4296
23563SOL    HW172130   7.809   4.732   9.604  0.8243 -0.4630 -0.7631
23563SOL    HW272131   7.941   4.800   9.637  0.3004 -0.5267  1.6997
23564SOL     OW72132   6.369   3.403  11.284  0.6922 -0.0124  0.3309
23564SOL    HW172133   6.438   3.341  11.260 -0.0609 -1.1473  1.0199
23564SOL    HW272134   6.332   3.431  11.200  0.3589 -1.2888  0.0395
23565SOL     OW72135   0.921   1.946  12.068 -0.0921 -0.5381  0.4736
23565SOL    HW172136   0.952   2.034  12.043  1.0851 -1.2414 -0.6650
23565SOL    HW272137   0.996   1.907  12.113  0.1170 -1.6542 -0.7859
23566SOL     OW72138   2.879   3.142   1.792 -0.2249 -0.1277  0.2028
23566SOL    HW172139   2.927   3.177   1.867 -1.0340 -2.3082  1.8399
23566SOL    HW272140   2.924   3.061   1.770 -1.8232 -1.1218  0.3965
23567SOL     OW72141   7.920   2.907   8.814  0.0033  0.1949  0.0755
23567SOL    HW172142   7.899   2.813   8.811 -1.0175  0.4203 -0.0878
23567SOL    HW272143   7.859   2.947   8.752  0.6890  0.9306 -0.1339
23568SOL     OW72144   2.003   1.125   8.031 -0.0782  0.0339 -0.0237
23568SOL    HW172145   2.053   1.106   7.952  0.4812 -0.9874  0.5442
23568SOL    HW272146   2.036   1.211   8.060  0.2868  0.0460 -0.4595
23569SOL     OW72147   7.203   7.758   3.108  0.2808  0.6700  0.9916
23569SOL    HW172148   7.243   7.810   3.178 -0.7714  1.7522  0.8118
23569SOL    HW272149   7.171   7.822   3.045  0.1149 -0.2520  0.1009
23570SOL     OW72150   7.817   6.017   9.572 -0.2359  0.2081  0.2566
23570SOL    HW172151   7.808   5.977   9.485 -1.8372  1.1054 -0.0294
23570SOL    HW272152   7.743   5.983   9.622 -1.1592  2.1033  0.2635
23571SOL     OW72153   4.306   7.719  11.176 -0.6816 -0.0699  0.0285
23571SOL    HW172154   4.327   7.728  11.269 -0.1645  0.8364 -0.1705
23571SOL    HW272155   4.210   7.715  11.174 -0.6792 -1.3235  0.6868
23572SOL     OW72156   5.733   4.453   8.706  0.2456 -0.1637 -0.0947
23572SOL    HW172157   5.731   4.391   8.633  1.7196 -0.2086 -0.1375
23572SOL    HW272158   5.792   4.413   8.770 -0.8255 -0.0081  1.0380
23573SOL     OW72159   3.640   3.105   3.275 -0.3122  0.6554  0.3938
23573SOL    HW172160   3.637   3.053   3.356  0.7712 -0.5337 -0.2914
23573SOL    HW272161   3.684   3.048   3.212 -2.2999  1.0260 -1.4450
23574SOL     OW72162   4.493   5.639   4.438 -0.2629  0.2471  0.1821
23574SOL    HW172163   4.527   5.660   4.351 -2.0960  2.9013 -0.0355
23574SOL    HW272164   4.563   5.591   4.481  1.3665  0.3680 -2.1705
23575SOL     OW72165   2.556   3.199  12.407  0.6238 -0.3439  0.0023
23575SOL    HW172166   2.485   3.237  12.459  0.5441 -2.2414  1.3891
23575SOL    HW272167   2.595   3.274  12.362 -1.6148  0.8897 -0.0445
23576SOL     OW72168   4.262   3.759   5.404  0.6158  0.1077  0.3001
23576SOL    HW172169   4.323   3.829   5.426 -1.1198  1.5130  0.9733
23576SOL    HW272170   4.287   3.686   5.462  2.1717  0.3118 -0.0866
23577SOL     OW72171   3.649   4.876   7.837 -0.3788 -0.1218  0.4992
23577SOL    HW172172   3.657   4.882   7.932  1.2768  0.2654  0.3664
23577SOL    HW272173   3.691   4.794   7.814 -0.9869 -0.3312  0.1092
23578SOL     OW72174   1.892   2.672   7.110 -0.1815  1.0329 -0.4959
23578SOL    HW172175   1.961   2.703   7.052  0.5429 -0.5033 -0.5201
23578SOL    HW272176   1.895   2.576   7.101 -1.1454  0.8520  0.8269
23579SOL     OW72177   4.374   5.599   2.537  0.0744  0.6028  0.4475
23579SOL    HW172178   4.368   5.517   2.587  0.0349  1.2495  1.5427
23579SOL    HW272179   4.466   5.624   2.543 -0.3144  1.8106  2.1163
23580SOL     OW72180   1.691   2.380   2.810 -0.4711 -1.0327  0.0105
23580SOL    HW172181   1.736   2.461   2.786 -1.5464 -0.0121  1.2643
23580SOL    HW272182   1.668   2.340   2.726 -1.2251  0.7277 -0.6812
23581SOL     OW72183   4.337   4.698  11.771 -0.4071 -0.2094  0.5003
23581SOL    HW172184   4.396   4.624  11.786  1.1232  0.7777 -0.3662
23581SOL    HW272185   4.394   4.768  11.740 -1.9183  1.1206  0.5901
23582SOL     OW72186   5.410   6.057  12.164 -0.1217  0.0930  0.1622
23582SOL    HW172187   5.402   6.137  12.112  0.6917  0.6728  0.9017
23582SOL    HW272188   5.408   5.986  12.100  0.1316  0.7522 -0.5904
23583SOL     OW72189   5.266   2.892   5.414 -0.0525 -0.3441  0.1324
23583SOL    HW172190   5.286   2.978   5.450  1.1980 -0.0092 -1.2802
23583SOL    HW272191   5.182   2.905   5.369 -0.7447 -0.3334  1.3774
23584SOL     OW72192   5.879   1.640   3.854  0.2503 -0.0876 -0.0236
23584SOL    HW172193   5.845   1.557   3.888  1.5556 -0.3312  0.7521
23584SOL    HW272194   5.878   1.698   3.930 -1.3942  0.8846 -0.7341
23585SOL     OW72195   2.885   3.408   8.948  0.4817 -0.4592  0.2434
23585SOL    HW172196   2.918   3.406   9.038  0.9629 -0.0220  0.0791
23585SOL    HW272197   2.860   3.500   8.935 -0.1879 -0.6478  0.1422
23586SOL     OW72198   2.200   5.504   9.837 -0.6864 -0.0716 -0.6913
23586SOL    HW172199   2.172   5.423   9.793 -1.6285 -0.7079  1.0025
23586SOL    HW272200   2.272   5.476   9.893  0.1197  0.6227 -1.3508
23587SOL     OW72201   4.228   4.922   8.971 -0.1720  0.5227  0.6061
23587SOL    HW172202   4.217   4.827   8.973 -1.6703  0.6917  1.1335
23587SOL    HW272203   4.170   4.951   8.900  0.5477  1.0272  0.2124
23588SOL     OW72204   3.414   4.863   3.984 -0.4407 -0.4968 -0.2550
23588SOL    HW172205   3.391   4.842   4.075 -0.0347 -0.9999 -0.2627
23588SOL    HW272206   3.509   4.850   3.980 -0.5078 -0.8454 -0.8475
23589SOL     OW72207   1.737   0.989  12.199  0.0210 -0.1130 -0.0555
23589SOL    HW172208   1.644   0.968  12.203 -0.2844  1.3639  1.7724
23589SOL    HW272209   1.756   1.035  12.281  2.3660 -0.3331 -0.3850
23590SOL     OW72210   3.599   1.366   3.075  0.1045  0.3137  0.0521
23590SOL    HW172211   3.534   1.302   3.105 -0.8823  0.4943 -1.5906
23590SOL    HW272212   3.549   1.426   3.018  1.3897  1.4267  0.0537
23591SOL     OW72213   7.354   4.175   6.368 -0.1996 -0.2476 -0.1328
23591SOL    HW172214   7.333   4.255   6.320 -2.5172 -0.9990 -0.5119
23591SOL    HW272215   7.389   4.115   6.303  0.0828 -0.0662 -0.1499
23592SOL     OW72216   3.118   7.249   6.136 -0.2961  0.4519 -0.4794
23592SOL    HW172217   3.179   7.228   6.206  0.3730  2.8544 -0.2644
23592SOL    HW272218   3.106   7.166   6.088 -0.5406 -1.1786  2.2252
23593SOL     OW72219   5.951   3.284   5.915  0.0473  0.0105  0.8659
23593SOL    HW172220   5.861   3.316   5.910 -0.5461 -1.7923 -1.5610
23593SOL    HW272221   5.991   3.336   5.985 -2.8217  0.9237  1.9594
23594SOL     OW72222   6.972   2.061   9.277 -0.3042  1.1442  0.1999
23594SOL    HW172223   6.952   2.104   9.360 -0.2599  0.1838  0.7227
23594SOL    HW272224   6.907   2.096   9.216 -2.9638 -1.0239  1.5781
23595SOL     OW72225   4.891   5.584   5.780  0.1817  0.2423  0.2423
23595SOL    HW172226   4.905   5.557   5.871  0.8128 -2.9031 -0.6367
23595SOL    HW272227   4.811   5.537   5.753 -0.3281  1.5833 -0.6702
23596SOL     OW72228   2.031   5.072   0.868 -0.2155 -0.4596  0.3963
23596SOL    HW172229   2.124   5.081   0.887 -0.4997 -0.3677  1.8279
23596SOL    HW272230   1.999   5.162   0.859 -0.1339 -0.4959 -0.3309
23597SOL     OW72231   5.268   5.525   9.046 -0.1657  0.1891  0.2036
23597SOL    HW172232   5.242   5.451   8.992 -0.2478  0.4967 -0.1804
23597SOL    HW272233   5.233   5.505   9.133 -1.1132  0.2775 -0.1478
23598SOL     OW72234   0.482   3.713  11.260 -0.4095 -0.1225  0.5565
23598SOL    HW172235   0.550   3.765  11.218 -1.0611  1.5034  1.4337
23598SOL    HW272236   0.520   3.626  11.268  0.9757  0.3698 -0.3491
23599SOL     OW72237   1.306   6.791  10.594  0.0511  0.4666 -0.2267
23599SOL    HW172238   1.212   6.795  10.575  0.1872 -0.5192 -1.2004
23599SOL    HW272239   1.334   6.705  10.561  0.9581 -0.0240  1.6361
23600SOL     OW72240   0.666   7.436   3.836  0.3665 -0.1562  0.7149
23600SOL    HW172241   0.614   7.482   3.770  0.8253 -2.4616 -1.3933
23600SOL    HW272242   0.605   7.376   3.878  0.5190 -0.1255  0.9838
23601SOL     OW72243   4.701   6.315   5.017  0.0898 -0.3349 -0.1466
23601SOL    HW172244   4.702   6.261   4.938 -0.6376  1.5579 -1.5308
23601SOL    HW272245   4.788   6.354   5.021 -0.4134  0.9283 -1.0435
23602SOL     OW72246   1.901   0.499   7.909  0.5860  0.4625  0.3504
23602SOL    HW172247   1.862   0.415   7.886  0.2374  0.6028  0.4259
23602SOL    HW272248   1.995   0.483   7.905  0.5938  0.8272 -2.4493
23603SOL     OW72249   1.626   6.307   6.076  0.3531 -0.3234  0.2198
23603SOL    HW172250   1.656   6.355   5.999 -1.3206  0.2371 -0.1243
23603SOL    HW272251   1.590   6.373   6.135  1.8329 -0.7140  1.6403
23604SOL     OW72252   6.221   2.880   6.367 -0.1444 -0.7564  0.0830
23604SOL    HW172253   6.314   2.884   6.390  0.0918 -1.8835 -0.6007
23604SOL    HW272254   6.218   2.900   6.273 -0.5076 -1.3849 -0.0465
23605SOL     OW72255   5.560   7.623   0.481  0.2195 -0.0795 -0.3312
23605SOL    HW172256   5.535   7.547   0.427  0.1946  0.2738 -0.8257
23605SOL    HW272257   5.497   7.622   0.553 -0.2176 -0.1321 -0.7053
23606SOL     OW72258   4.037   2.110   6.545 -0.1598  0.6707 -0.2638
23606SOL    HW172259   4.108   2.174   6.536  1.9598 -1.4837  0.3764
23606SOL    HW272260   4.020   2.106   6.639 -0.7321  0.7061 -0.3597
23607SOL     OW72261   7.321   3.758   0.702 -0.3227  0.1699  0.4785
23607SOL    HW172262   7.343   3.832   0.759 -0.5310  0.0940  0.6613
23607SOL    HW272263   7.284   3.693   0.761  1.1000 -0.6337  0.5364
23608SOL     OW72264   2.134   7.667   1.502  0.3578 -0.1327 -0.4414
23608SOL    HW172265   2.078   7.609   1.555 -0.5132  2.0563  1.1754
23608SOL    HW272266   2.217   7.668   1.548  0.6900 -0.7927 -1.0040
23609SOL     OW72267   5.369   4.452   5.647 -0.0216  0.1832  0.4323
23609SOL    HW172268   5.336   4.530   5.691  0.9264  0.2860  0.9903
23609SOL    HW272269   5.406   4.484   5.565 -0.5762  0.1671  0.1681
23610SOL     OW72270   4.753   0.434   2.001 -0.3713 -0.2419 -0.4813
23610SOL    HW172271   4.774   0.527   1.996 -0.7936 -0.0791  0.5563
23610SOL    HW272272   4.717   0.422   2.089 -2.3137 -0.9658 -1.3262
23611SOL     OW72273   4.456   0.386   5.398  0.2674 -0.1341 -0.3967
23611SOL    HW172274   4.496   0.323   5.338  0.3068 -1.7711  1.2456
23611SOL    HW272275   4.367   0.352   5.412  0.1651  0.3793  0.2279
23612SOL     OW72276   6.006   7.074   2.361 -0.0527  0.4798  0.5749
23612SOL    HW172277   6.073   7.143   2.356 -0.8842  1.2868  0.3987
23612SOL    HW272278   6.053   6.998   2.397  0.8465  1.1686  0.8986
23613SOL     OW72279   3.591   0.306  10.635 -0.1614  0.3981  0.1113
23613SOL    HW172280   3.616   0.215  10.617  0.9256  0.5904  0.5592
23613SOL    HW272281   3.519   0.300  10.698  0.6482 -0.1406  1.0046
23614SOL     OW72282   5.735   2.936  11.531 -0.3965  0.1451 -0.5059
23614SOL    HW172283   5.766   2.845  11.525 -1.0012 -0.0159 -1.3679
23614SOL    HW272284   5.803   2.987  11.487 -0.3037  0.0553 -0.4684
23615SOL     OW72285   2.633   6.088   7.836  0.2554 -0.2108  0.2733
23615SOL    HW172286   2.604   6.135   7.914 -1.4288 -0.3945 -0.2100
23615SOL    HW272287   2.624   6.152   7.765  1.5530 -0.1203  0.1593
23616SOL     OW72288   6.974   4.138   2.609  0.0289 -0.1329  0.2245
23616SOL    HW172289   6.893   4.168   2.651 -0.6097  0.7336 -1.5610
23616SOL    HW272290   6.950   4.118   2.519  1.6143 -0.8030 -0.0973
23617SOL     OW72291   0.156   1.984   7.316  0.3734 -0.1765  0.2611
23617SOL    HW172292   0.069   1.952   7.341  0.4795  0.3830  1.3974
23617SOL    HW272293   0.203   1.994   7.399  1.3555  0.0146 -0.3035
23618SOL     OW72294   4.108   7.082   2.500  0.7331 -0.8596 -0.6363
23618SOL    HW172295   4.187   7.132   2.520  0.2284 -0.5642  0.7318
23618SOL    HW272296   4.130   6.992   2.521  0.4436 -0.6531  0.6415
23619SOL     OW72297   1.903   3.998  10.572 -0.1522  0.4519  1.1333
23619SOL    HW172298   1.831   3.942  10.602 -0.1543  1.0600  2.3222
23619SOL    HW272299   1.936   3.954  10.494 -2.3192  0.5575  0.0630
23620SOL     OW72300   5.761   3.693  11.016 -0.3563  0.0144  0.3732
23620SOL    HW172301   5.678   3.711  11.062  0.1288  1.8703  0.5972
23620SOL    HW272302   5.738   3.627  10.950 -1.6002 -0.8658  1.6258
23621SOL     OW72303   0.504   3.728   5.344  0.2513  0.0561  0.3387
23621SOL    HW172304   0.470   3.735   5.433 -1.2171 -0.6964 -0.1399
23621SOL    HW272305   0.431   3.692   5.293  0.9280  0.8448 -1.2475
23622SOL     OW72306   5.979   7.399   8.549 -0.0753 -0.6104 -0.0337
23622SOL    HW172307   6.066   7.362   8.535  0.7199  0.7622  1.0258
23622SOL    HW272308   5.973   7.411   8.644 -0.3840  1.6569 -0.2785
23623SOL     OW72309   2.598   3.477   5.287 -0.3239 -0.5016 -0.0788
23623SOL    HW172310   2.603   3.440   5.199  2.0443  1.3552 -0.8439
23623SOL    HW272311   2.577   3.569   5.272  2.0341  0.3009  1.0739
23624SOL     OW72312   7.380   0.593   4.436 -0.1629 -0.1601  0.2003
23624SOL    HW172313   7.367   0.501   4.460  0.0698 -0.3475 -0.3663
23624SOL    HW272314   7.330   0.642   4.500 -2.5523 -0.7955 -1.0692
23625SOL     OW72315   7.758   5.795   1.374  0.0749 -0.6159  0.4620
23625SOL    HW172316   7.713   5.772   1.455  0.9805 -0.1205  1.1319
23625SOL    HW272317   7.782   5.887   1.385  0.4661 -0.6212 -0.2438
23626SOL     OW72318   1.561   3.731   9.810 -0.4439  0.2497  0.2090
23626SOL    HW172319   1.619   3.676   9.759 -1.9818 -0.5553 -0.7334
23626SOL    HW272320   1.542   3.680   9.889 -1.4613 -0.4022 -0.4297
23627SOL     OW72321   1.038   4.554  10.213  0.0560 -0.3599  0.1521
23627SOL    HW172322   0.995   4.634  10.244  1.6423  0.5198  0.2003
23627SOL    HW272323   1.011   4.487  10.275 -2.3499 -0.2082 -0.6191
23628SOL     OW72324   1.966   7.318   7.170  0.1842 -0.2931 -0.2644
23628SOL    HW172325   2.031   7.248   7.165  0.6789  0.2338 -2.1170
23628SOL    HW272326   2.000   7.377   7.237  1.0302 -0.6146 -0.3952
23629SOL     OW72327   2.189   6.798   7.133  0.2059  0.4544  0.3460
23629SOL    HW172328   2.281   6.773   7.139  0.1634 -0.7193 -2.2648
23629SOL    HW272329   2.142   6.727   7.177  0.4814  0.1781  0.1965
23630SOL     OW72330   6.518   0.066   5.477  0.0830 -0.6917  0.0119
23630SOL    HW172331   6.522   0.116   5.396 -0.5928 -0.2976  0.2111
23630SOL    HW272332   6.522   0.133   5.546  2.4367 -1.1117  0.3668
23631SOL     OW72333   2.944   3.959   7.425  0.2985  0.1262  0.1438
23631SOL    HW172334   2.997   4.033   7.456 -0.5018  1.8830 -2.3683
23631SOL    HW272335   3.004   3.909   7.368  0.4950 -0.5198  0.8974
23632SOL     OW72336   1.036   6.990  11.196 -0.0451 -0.0045 -0.1199
23632SOL    HW172337   0.972   7.025  11.259  0.0901  1.3933 -0.7164
23632SOL    HW272338   0.988   6.986  11.113  0.6342  1.1514 -0.5944
23633SOL     OW72339   3.190   0.898  12.088 -0.0348  0.6090 -0.0364
23633SOL    HW172340   3.206   0.804  12.092 -1.4131  0.3442 -0.1758
23633SOL    HW272341   3.232   0.933  12.167  0.7585 -0.0741 -0.1439
23634SOL     OW72342   2.253   4.446   3.278 -0.4670  0.2700 -0.1820
23634SOL    HW172343   2.301   4.365   3.258 -0.1217  0.2789  0.5404
23634SOL    HW272344   2.161   4.421   3.273 -0.4688  0.5302 -2.7210
23635SOL     OW72345   4.727   6.000   8.660  0.8788  0.0299  0.2702
23635SOL    HW172346   4.643   6.024   8.621  1.1893 -0.0358 -0.4613
23635SOL    HW272347   4.753   5.920   8.614  1.2899 -0.0151  0.5743
23636SOL     OW72348   1.986   0.302   0.571 -0.5323 -0.0113  0.4463
23636SOL    HW172349   2.078   0.298   0.545 -0.1039 -0.8547  1.9862
23636SOL    HW272350   1.961   0.393   0.555  0.8575  0.4907  0.9149
23637SOL     OW72351   0.589   4.190   1.139  0.5727  0.1961 -0.3432
23637SOL    HW172352   0.632   4.126   1.195  0.6898  1.2073  0.7654
23637SOL    HW272353   0.638   4.188   1.057  2.4122  0.9206  0.6843
23638SOL     OW72354   5.597   5.140   5.345 -0.2204  0.0699  0.0217
23638SOL    HW172355   5.504   5.147   5.365 -0.1350  0.5836  0.2465
23638SOL    HW272356   5.636   5.218   5.384  0.3067 -0.1483 -0.0627
23639SOL     OW72357   7.417   6.987   8.792 -0.1739 -0.0611 -0.2104
23639SOL    HW172358   7.387   7.059   8.848 -0.7968  2.8095 -3.8429
23639SOL    HW272359   7.492   7.023   8.745 -1.3367 -1.2151 -3.1734
23640SOL     OW72360   6.306   3.845   0.895 -0.1601 -0.3376  0.4620
23640SOL    HW172361   6.241   3.914   0.908  0.4089  0.1566  0.6705
23640SOL    HW272362   6.381   3.871   0.948  0.1385 -1.0123  0.3854
23641SOL     OW72363   0.314   4.469   3.916  0.3628  0.1323 -0.3094
23641SOL    HW172364   0.362   4.525   3.855  1.7107 -0.3788  0.2362
23641SOL    HW272365   0.369   4.466   3.994  0.1245 -1.5952 -0.1624
23642SOL     OW72366   7.128   2.356  11.387 -0.1659 -0.1196 -0.0288
23642SOL    HW172367   7.049   2.401  11.418  0.3451  0.7699 -0.0006
23642SOL    HW272368   7.166   2.415  11.323  0.5286 -0.5130  0.0138
23643SOL     OW72369   1.263   4.634   2.556  0.3296 -0.0117  0.1571
23643SOL    HW172370   1.250   4.544   2.526 -1.2225 -0.3507  1.6856
23643SOL    HW272371   1.338   4.665   2.506  0.2715 -1.8083 -1.1515
23644SOL     OW72372   3.432   0.168   9.582 -0.4172  0.2238 -0.8959
23644SOL    HW172373   3.350   0.120   9.569 -0.6351  0.4823 -0.4976
23644SOL    HW272374   3.457   0.196   9.494  0.7316 -2.2394 -1.4363
23645SOL     OW72375   4.967   6.408   4.185 -0.6501  0.4955  0.4149
23645SOL    HW172376   4.931   6.337   4.236  4.0600 -1.7523  1.1728
23645SOL    HW272377   4.979   6.372   4.097  1.3976  0.3378  0.6970
23646SOL     OW72378   5.598   0.615  11.039 -0.3915  0.1395  0.1407
23646SOL    HW172379   5.550   0.533  11.053  0.1703 -0.2800 -0.3699
23646SOL    HW272380   5.539   0.668  10.985 -0.1701 -0.4923 -0.7467
23647SOL     OW72381   2.490   1.957   0.737  0.3892 -0.2135  0.4093
23647SOL    HW172382   2.459   2.029   0.683  0.2929  0.5808  1.4830
23647SOL    HW272383   2.497   1.883   0.677 -0.0980  0.5286 -0.5925
23648SOL     OW72384   6.426   4.758   8.939 -0.1498 -0.4192 -0.7996
23648SOL    HW172385   6.413   4.669   8.906 -3.0920 -0.8114  1.0455
23648SOL    HW272386   6.349   4.806   8.908  0.3667  0.9344 -0.0545
23649SOL     OW72387   7.050   0.541   0.179  0.3498 -0.0471  0.2888
23649SOL    HW172388   7.082   0.596   0.107 -1.1332 -1.2794 -1.4202
23649SOL    HW272389   7.127   0.491   0.207  0.6308 -0.8392 -1.7251
23650SOL     OW72390   2.626   4.503   6.585  0.0294  0.2276 -0.1166
23650SOL    HW172391   2.676   4.487   6.666  0.4931  1.5498 -0.1234
23650SOL    HW272392   2.537   4.521   6.615 -0.0906 -0.5241  0.0031
23651SOL     OW72393   4.278   3.309   0.183  0.7540 -0.1335 -0.7287
23651SOL    HW172394   4.282   3.391   0.134 -0.5959  1.0497  0.9768
23651SOL    HW272395   4.204   3.262   0.146  0.2295  0.3950 -0.3677
23652SOL     OW72396   6.802   4.587   6.248 -0.3688 -0.4804 -0.3460
23652SOL    HW172397   6.858   4.629   6.314 -0.5815 -2.2544  1.0374
23652SOL    HW272398   6.861   4.568   6.175  0.3264 -0.2978  0.1574
23653SOL     OW72399   5.722   5.737   5.254 -0.0984  0.8442 -0.1332
23653SOL    HW172400   5.640   5.762   5.296 -1.1003 -0.4586 -1.2279
23653SOL    HW272401   5.720   5.784   5.170  0.7709  1.5910  0.2496
23654SOL     OW72402   6.656   3.291   2.162 -0.2221 -0.1640  0.0626
23654SOL    HW172403   6.591   3.246   2.217  1.4298 -0.5401  1.8023
23654SOL    HW272404   6.644   3.253   2.075 -1.4842 -1.1251  0.6217
23655SOL     OW72405   0.410   0.035   9.542  0.0458  0.2098  0.4262
23655SOL    HW172406   0.438   0.116   9.584  0.2956 -1.0945  2.9375
23655SOL    HW272407   0.491  -0.005   9.512  0.1094  0.0038  0.8739
23656SOL     OW72408   0.960   4.336   3.082  0.4524 -0.4714  0.1314
23656SOL    HW172409   0.872   4.298   3.077  0.3238 -0.0457 -1.1988
23656SOL    HW272410   0.954   4.403   3.149 -0.5524  0.3053 -0.6964
23657SOL     OW72411   1.786   3.062   1.989  0.1414 -0.1091  0.4906
23657SOL    HW172412   1.752   3.099   2.071 -0.1215  0.8015 -0.0212
23657SOL    HW272413   1.773   2.968   1.999 -1.6714  0.1361  0.7063
23658SOL     OW72414   6.010   4.677   8.030 -0.1881 -0.6335  0.0804
23658SOL    HW172415   5.952   4.742   7.992  0.8707  0.0252 -0.4625
23658SOL    HW272416   6.022   4.612   7.960 -0.0740 -0.6402  0.1055
23659SOL     OW72417   6.659   1.840   5.976  0.0663 -0.2867  0.6063
23659SOL    HW172418   6.661   1.803   5.888 -0.4391 -0.1724  0.5415
23659SOL    HW272419   6.570   1.874   5.986  0.3598  0.4461  0.8515
23660SOL     OW72420   5.616   0.422   4.775  0.4615  0.2796 -0.0884
23660SOL    HW172421   5.576   0.505   4.747 -0.5396  0.0274  0.5295
23660SOL    HW272422   5.710   0.435   4.761  0.0910  0.2480 -3.2644
23661SOL     OW72423   1.109   2.910   7.153 -0.5541  0.3225  0.1369
23661SOL    HW172424   1.032   2.953   7.117 -1.1620 -1.1775 -0.4511
23661SOL    HW272425   1.158   2.979   7.197 -1.5974  1.5357 -0.5655
23662SOL     OW72426   6.996   4.792  12.268 -0.0694 -0.4683  0.2916
23662SOL    HW172427   6.987   4.847  12.191 -1.3629 -0.3565  0.5073
23662SOL    HW272428   7.066   4.730  12.246  0.7017  0.5893 -0.3349
23663SOL     OW72429   5.198   6.608   6.145  0.3276 -0.3168  0.1175
23663SOL    HW172430   5.265   6.542   6.126  2.4256  1.9454 -0.8942
23663SOL    HW272431   5.162   6.631   6.059  0.9317  1.0997  0.2158
23664SOL     OW72432   0.726   5.362   5.463 -0.0921  0.1094  0.3506
23664SOL    HW172433   0.735   5.272   5.432 -0.1919 -0.0362  0.7471
23664SOL    HW272434   0.647   5.394   5.419  0.6950  0.4574 -0.8773
23665SOL     OW72435   2.057   0.256   4.882  0.7047 -0.4003 -0.5219
23665SOL    HW172436   2.089   0.209   4.959 -1.0282  0.4208  0.7707
23665SOL    HW272437   2.136   0.292   4.842  1.5668  0.7776  1.9927
23666SOL     OW72438   5.619   5.992   7.826  0.4916 -0.3401  0.3974
23666SOL    HW172439   5.536   5.971   7.784  0.2760  0.3301  0.4669
23666SOL    HW272440   5.603   5.975   7.919 -0.2689  1.7590  0.7070
23667SOL     OW72441   2.519   4.447   1.945  0.0106 -0.0828  0.2967
23667SOL    HW172442   2.499   4.355   1.928  0.4902 -0.4918  1.7331
23667SOL    HW272443   2.465   4.495   1.883 -0.2874 -1.3272 -0.4581
23668SOL     OW72444   5.914   4.313   4.981 -0.3308  0.1658 -0.5211
23668SOL    HW172445   5.864   4.283   5.057 -0.3686  0.4463 -0.4346
23668SOL    HW272446   5.917   4.409   4.990  1.0396  0.0948  0.0021
23669SOL     OW72447   2.490   1.247   3.474  0.4812  0.1793 -0.3798
23669SOL    HW172448   2.469   1.338   3.457 -0.2550  0.2316  0.7358
23669SOL    HW272449   2.448   1.227   3.558  0.0975 -1.3644 -0.9073
23670SOL     OW72450   6.808   1.046   6.150 -0.2128 -0.1448  0.4390
23670SOL    HW172451   6.856   1.129   6.154  0.9315 -0.5545 -2.4125
23670SOL    HW272452   6.728   1.067   6.100  0.2270 -0.7887 -0.5565
23671SOL     OW72453   3.276   6.978   4.009 -0.0012  0.4139  0.1979
23671SOL    HW172454   3.363   6.956   4.043  0.4957 -0.6907 -1.6943
23671SOL    HW272455   3.241   7.040   4.073  1.7117  0.0174  1.5934
23672SOL     OW72456   4.637   6.532   8.968  0.2588 -0.2204  0.6262
23672SOL    HW172457   4.597   6.587   9.036  1.1809  0.2914  0.7771
23672SOL    HW272458   4.567   6.517   8.905  0.1257  1.7392  0.2272
23673SOL     OW72459   6.299   2.994  11.110  0.1009  0.4016  0.8416
23673SOL    HW172460   6.323   2.988  11.202 -0.9930  1.2612  1.1977
23673SOL    HW272461   6.215   2.949  11.103  0.2721  0.1686  0.2245
23674SOL     OW72462   2.439   4.866  11.282  0.2373 -0.0372  0.4195
23674SOL    HW172463   2.393   4.852  11.199 -0.6666 -2.2931  1.2336
23674SOL    HW272464   2.439   4.961  11.293 -2.2672  0.1876 -0.7496
23675SOL     OW72465   2.281   6.644   9.801 -0.0249 -0.5887 -0.8101
23675SOL    HW172466   2.228   6.651   9.722 -1.1100  0.1914 -0.0439
23675SOL    HW272467   2.307   6.552   9.805 -0.5588 -0.7848 -1.6843
23676SOL     OW72468   4.080   6.171   9.950 -0.0812  0.1650  0.0265
23676SOL    HW172469   4.155   6.203  10.001 -0.5985 -0.4716  1.2301
23676SOL    HW272470   4.023   6.247   9.941  0.6528  0.6385 -0.8413
23677SOL     OW72471   3.284   5.228   3.075 -0.0173  0.0890  0.5651
23677SOL    HW172472   3.375   5.258   3.078  0.5628 -1.5632  0.0025
23677SOL    HW272473   3.245   5.279   3.004  0.8550 -0.2005 -0.1426
23678SOL     OW72474   5.930   1.086   4.874  0.1833  0.0126  0.0498
23678SOL    HW172475   5.932   1.109   4.967  0.5154 -1.2891  0.3867
23678SOL    HW272476   6.022   1.071   4.851 -0.0212 -1.0736 -0.1040
23679SOL     OW72477   1.834   2.467   5.644 -0.4913 -0.1027  0.0466
23679SOL    HW172478   1.873   2.525   5.578 -0.3834 -0.2842 -0.0504
23679SOL    HW272479   1.811   2.388   5.595  2.1347 -1.3806  0.6890
23680SOL     OW72480   4.765   5.609  11.884 -0.8546 -0.1484 -0.2591
23680SOL    HW172481   4.847   5.566  11.857  0.3451  0.6875  1.8387
23680SOL    HW272482   4.793   5.683  11.937 -2.9409  1.8844 -1.7961
23681SOL     OW72483   7.084   2.182   5.499  0.0198  0.3797  0.2819
23681SOL    HW172484   7.095   2.093   5.465  0.0400  0.7846 -0.8262
23681SOL    HW272485   7.163   2.197   5.551  0.9234  0.3884 -1.0358
23682SOL     OW72486   6.709   3.041   7.531 -0.1843 -0.1535 -0.5005
23682SOL    HW172487   6.631   3.092   7.507 -0.8159 -1.5639 -1.5471
23682SOL    HW272488   6.780   3.105   7.530 -1.2062  1.0427 -0.1199
23683SOL     OW72489   3.132   1.426   0.781  0.5554 -0.2789 -0.1007
23683SOL    HW172490   3.069   1.357   0.800 -0.9335  0.3681 -2.2926
23683SOL    HW272491   3.091   1.477   0.711  3.8897 -0.3602 -2.3318
23684SOL     OW72492   6.930   5.646   8.673 -0.0914  0.8668 -0.5856
23684SOL    HW172493   6.973   5.578   8.621  1.1027  2.1694 -1.3657
23684SOL    HW272494   6.869   5.598   8.729  0.4145 -0.8014 -1.3942
23685SOL     OW72495   3.301   4.690   2.983 -0.0716  0.3154 -0.6450
23685SOL    HW172496   3.343   4.610   3.014 -0.0993  0.5882  0.1280
23685SOL    HW272497   3.269   4.669   2.895  1.0525 -0.1138 -0.9635
23686SOL     OW72498   5.122   3.673   9.586 -0.9657  0.2641 -0.0078
23686SOL    HW172499   5.051   3.734   9.607 -0.5239  1.1328 -0.9333
23686SOL    HW272500   5.186   3.687   9.656 -0.9128  0.7925 -0.1573
23687SOL     OW72501   5.464   7.933  10.256 -0.0754  0.0355 -0.2263
23687SOL    HW172502   5.397   7.882  10.303  0.9894 -1.9121 -0.7151
23687SOL    HW272503   5.547   7.893  10.281  1.0133  2.5839  0.5796
23688SOL     OW72504   5.520   0.153   9.857  0.0764 -0.5736  0.4265
23688SOL    HW172505   5.611   0.127   9.869  0.6056  0.5513 -0.8032
23688SOL    HW272506   5.478   0.078   9.816  0.8114 -0.6214 -0.2643
23689SOL     OW72507   6.800   3.852   4.668 -0.1270  0.0000 -0.0419
23689SOL    HW172508   6.722   3.825   4.619 -0.0401  1.9216 -1.3647
23689SOL    HW272509   6.768   3.920   4.727  0.2238 -0.6059  0.8719
23690SOL     OW72510   5.434   7.899   7.891  0.4918 -0.0939  0.9648
23690SOL    HW172511   5.522   7.925   7.919  1.0754  0.6099 -1.2647
23690SOL    HW272512   5.439   7.804   7.881  0.6982 -0.1717  1.7830
23691SOL     OW72513   3.585   6.562   3.007  0.3554  0.3721 -0.4165
23691SOL    HW172514   3.673   6.539   3.038 -0.3597  0.9552  2.2957
23691SOL    HW272515   3.567   6.647   3.046 -2.0622 -0.5132  0.6046
23692SOL     OW72516   4.597   0.464   0.776  0.1624 -0.4434  0.0552
23692SOL    HW172517   4.553   0.403   0.835  0.0883 -1.0720 -0.6443
23692SOL    HW272518   4.588   0.425   0.689 -2.1819  1.8075 -0.8337
23693SOL     OW72519   3.137   1.314   1.053 -0.1230 -0.2061 -0.3197
23693SOL    HW172520   3.108   1.405   1.067 -1.0551 -0.4496 -0.5617
23693SOL    HW272521   3.087   1.286   0.976  0.9451 -0.5928 -0.8849
23694SOL     OW72522   7.673   7.859   9.313  0.2515 -0.2973 -0.2812
23694SOL    HW172523   7.694   7.920   9.242  1.6481  0.1725  0.4869
23694SOL    HW272524   7.746   7.868   9.375 -0.7426 -0.9597  1.0434
23695SOL     OW72525   0.733   7.587   2.542 -0.0167  0.0126 -0.2753
23695SOL    HW172526   0.780   7.621   2.618  0.1391  1.0951 -0.8296
23695SOL    HW272527   0.641   7.607   2.559 -0.1519 -0.9907  0.2435
23696SOL     OW72528   3.353   6.771   3.485  0.2890 -0.0213  0.4122
23696SOL    HW172529   3.441   6.809   3.485 -0.6747  2.3831  0.4507
23696SOL    HW272530   3.330   6.766   3.392  1.1169 -2.4493  0.2698
23697SOL     OW72531   4.101   0.253   7.614 -0.1628 -0.5337 -0.0424
23697SOL    HW172532   4.135   0.266   7.525  2.0818 -2.9974  0.3653
23697SOL    HW272533   4.089   0.342   7.648  0.7445  0.4510 -2.1216
23698SOL     OW72534   1.756   5.319   8.644 -0.1224  0.1982 -0.4348
23698SOL    HW172535   1.815   5.321   8.719  0.8046  0.0200 -1.1442
23698SOL    HW272536   1.673   5.288   8.679  0.6625 -1.1646  0.2814
23699SOL     OW72537   3.578   1.604   6.469 -0.9545 -0.1061 -0.0948
23699SOL    HW172538   3.647   1.622   6.534  1.1788 -1.2612 -1.9030
23699SOL    HW272539   3.552   1.514   6.486 -0.6553 -0.2881 -0.5771
23700SOL     OW72540   3.759   5.355   7.635 -0.6267 -0.3543  0.4329
23700SOL    HW172541   3.840   5.377   7.589 -0.4071 -0.6627  0.6650
23700SOL    HW272542   3.691   5.364   7.569 -0.9372  3.4333  1.0325
23701SOL     OW72543   0.762   7.123   5.997 -0.3127  0.1270 -0.3285
23701SOL    HW172544   0.734   7.166   6.078  0.3022 -0.3761  0.1577
23701SOL    HW272545   0.783   7.034   6.023 -0.6569 -0.2120 -1.1543
23702SOL     OW72546   6.274   4.747   5.261 -0.1986 -0.0157 -0.0340
23702SOL    HW172547   6.261   4.826   5.312 -0.6826 -0.1314  0.0315
23702SOL    HW272548   6.358   4.759   5.218 -0.8852  1.1448 -1.1098
23703SOL     OW72549   7.934   7.663   3.602 -0.1811  0.5078  0.0440
23703SOL    HW172550   8.009   7.672   3.545  0.1920 -1.2179  0.1989
23703SOL    HW272551   7.864   7.629   3.546 -1.2294  3.0452 -0.3334
23704SOL     OW72552   2.258   0.230   1.010  1.1871  0.2495  0.1024
23704SOL    HW172553   2.195   0.172   0.968  1.8668 -0.3095 -0.1625
23704SOL    HW272554   2.266   0.305   0.951 -0.2344  0.9887  0.7911
23705SOL     OW72555   4.484   1.348   4.041  0.2514  0.0173  0.2050
23705SOL    HW172556   4.411   1.362   4.101  0.2879 -0.7652  0.4417
23705SOL    HW272557   4.475   1.257   4.012  1.3512 -0.2263  0.5560
23706SOL     OW72558   4.225   1.530   7.694 -0.1477 -0.0433 -0.0971
23706SOL    HW172559   4.273   1.453   7.665 -1.0215 -0.6137 -0.0393
23706SOL    HW272560   4.199   1.574   7.613 -1.8422 -1.1773 -0.2028
23707SOL     OW72561   1.424   1.801   3.028 -0.1699 -0.1033  0.3008
23707SOL    HW172562   1.370   1.834   3.100 -0.6614 -0.4436  0.0924
23707SOL    HW272563   1.364   1.794   2.954  0.2503 -0.1114 -0.0431
23708SOL     OW72564   4.091   0.822  11.214 -0.1149  0.2262 -0.0393
23708SOL    HW172565   4.131   0.900  11.176  1.2784  0.1615  1.2014
23708SOL    HW272566   4.006   0.815  11.170 -0.9611  3.2998  0.9006
23709SOL     OW72567   6.235   5.547  10.635 -0.3872  0.4760 -0.2973
23709SOL    HW172568   6.231   5.581  10.724  3.0260  0.1231  0.1111
23709SOL    HW272569   6.147   5.513  10.619 -1.0785  0.3768  2.9948
23710SOL     OW72570   4.350   4.322   1.569 -0.1436 -0.2221 -0.3222
23710SOL    HW172571   4.329   4.348   1.659 -1.4177  1.6453 -1.0975
23710SOL    HW272572   4.413   4.388   1.539 -0.1890 -0.4736 -0.9865
23711SOL     OW72573   4.841   5.812   9.144 -0.1173  0.4981  0.1791
23711SOL    HW172574   4.800   5.847   9.065 -1.5540  0.0383  0.6893
23711SOL    HW272575   4.796   5.856   9.216  0.9223  0.6412  0.7593
23712SOL     OW72576   1.953   2.272   5.220 -0.3455 -0.4350  0.4368
23712SOL    HW172577   1.894   2.259   5.294 -0.3826 -0.3944  0.4143
23712SOL    HW272578   1.957   2.367   5.209 -0.2546 -0.4362  0.4553
23713SOL     OW72579   0.758   1.783  11.373 -0.5286  0.0905  0.2359
23713SOL    HW172580   0.690   1.743  11.320  0.7189 -0.3680 -1.0757
23713SOL    HW272581   0.826   1.716  11.381 -0.2447  0.5046  1.5790
23714SOL     OW72582   0.133   1.919  10.363  1.0657  0.5769  0.0079
23714SOL    HW172583   0.082   1.908  10.283  2.5403  0.9624 -1.0387
23714SOL    HW272584   0.185   1.839  10.370  3.1486  1.7372 -1.1397
23715SOL     OW72585   4.613   0.694   8.671  0.1069 -0.1823 -0.1696
23715SOL    HW172586   4.620   0.770   8.729  1.4322  0.5529 -1.2607
23715SOL    HW272587   4.646   0.621   8.724  1.8200  0.5699 -0.1243
23716SOL     OW72588   0.801   3.266   8.662  0.0968 -0.0851  0.1171
23716SOL    HW172589   0.810   3.187   8.609  1.2220 -0.5711  0.9800
23716SOL    HW272590   0.866   3.327   8.626  0.8902 -0.4310  0.9331
23717SOL     OW72591   0.395   6.077  10.756  0.1709 -0.0202 -0.3086
23717SOL    HW172592   0.307   6.047  10.733  0.8570 -1.7350 -0.9134
23717SOL    HW272593   0.406   6.051  10.847 -1.7033  4.7407  1.6252
23718SOL     OW72594   2.830   1.981   1.446 -0.6805 -0.3789 -0.2275
23718SOL    HW172595   2.762   1.914   1.455 -2.5781  0.9882 -3.0442
23718SOL    HW272596   2.809   2.026   1.365  2.8582  1.0572 -0.5264
23719SOL     OW72597   5.617   0.860  11.227  0.3923 -0.0334  0.1504
23719SOL    HW172598   5.582   0.780  11.188  2.3766 -1.8251  1.7732
23719SOL    HW272599   5.585   0.859  11.317  0.7227  0.8257  0.2898
23720SOL     OW72600   6.343   4.982   7.183  0.4296 -0.7865  0.3927
23720SOL    HW172601   6.285   4.995   7.108  1.5984 -0.3391 -0.4606
23720SOL    HW272602   6.349   4.887   7.193 -0.6452 -0.8406  0.6676
23721SOL     OW72603   3.623   6.445   4.692 -0.0959 -0.4999 -0.1399
23721SOL    HW172604   3.621   6.536   4.662  0.7423 -0.4451 -0.0553
23721SOL    HW272605   3.660   6.450   4.780 -1.8556 -0.7329  0.6668
23722SOL     OW72606   1.561   3.290   0.504  0.8060  0.1505  0.6813
23722SOL    HW172607   1.570   3.384   0.490  0.5569  0.0210 -0.3737
23722SOL    HW272608   1.632   3.251   0.453 -0.5781 -0.3678 -0.9278
23723SOL     OW72609   1.902   6.152   2.716  0.0968 -0.2989  0.3829
23723SOL    HW172610   1.888   6.189   2.803  0.4291  2.0822 -0.4725
23723SOL    HW272611   1.817   6.162   2.672  0.4876  0.5734 -0.2149
23724SOL     OW72612   4.920   6.208   7.001  0.1967 -0.0646  0.4079
23724SOL    HW172613   4.849   6.206   6.936  0.8629  0.6759 -0.3741
23724SOL    HW272614   4.898   6.138   7.063 -1.4162  0.4035  0.4105
23725SOL     OW72615   4.422   3.830  11.125 -0.2769  0.0328  0.0098
23725SOL    HW172616   4.398   3.881  11.048  0.6322  0.3238 -0.0915
23725SOL    HW272617   4.400   3.740  11.101 -0.0624  0.1269 -0.5672
23726SOL     OW72618   4.919   7.317  11.690  0.1701  0.1979 -0.0544
23726SOL    HW172619   4.984   7.303  11.759  0.6916  0.2448 -0.5290
23726SOL    HW272620   4.891   7.408  11.701  0.7802  0.4238 -0.3455
23727SOL     OW72621   3.883   5.759  11.920 -0.4913  0.0769 -0.2571
23727SOL    HW172622   3.976   5.755  11.942 -0.0374  1.7548 -1.5798
23727SOL    HW272623   3.841   5.796  11.997  0.0784  0.0725  0.0584
23728SOL     OW72624   6.323   1.401  12.162 -0.4135  0.3644  0.2899
23728SOL    HW172625   6.249   1.388  12.222 -1.2983 -1.6900 -1.1316
23728SOL    HW272626   6.386   1.333  12.186  0.1171  0.8044  0.1698
23729SOL     OW72627   4.809   1.685  10.402 -0.6120 -0.4735 -0.0845
23729SOL    HW172628   4.793   1.594  10.377 -1.3462  0.0739 -1.8091
23729SOL    HW272629   4.796   1.687  10.496  1.3541 -2.5172  0.2913
23730SOL     OW72630   2.778   0.834   1.018 -0.1605 -0.1559 -0.1735
23730SOL    HW172631   2.864   0.851   0.979 -0.6572  0.2108 -1.1291
23730SOL    HW272632   2.717   0.888   0.967 -0.8449  0.3063  1.0827
23731SOL     OW72633   6.408   6.382   7.405  0.0979 -0.1243 -0.1439
23731SOL    HW172634   6.477   6.427   7.357 -0.9404  0.3006 -1.3006
23731SOL    HW272635   6.432   6.392   7.497  0.6997  1.4493 -0.4445
23732SOL     OW72636   0.757   7.435   3.195  0.1346 -0.1895 -0.6614
23732SOL    HW172637   0.763   7.530   3.191  0.2877 -0.0938  1.0051
23732SOL    HW272638   0.675   7.414   3.152 -0.7645  0.8689  0.4682
23733SOL     OW72639   7.018   0.208   4.723 -0.3063 -0.7868  0.2535
23733SOL    HW172640   7.114   0.205   4.719 -0.2391  1.2308 -2.1382
23733SOL    HW272641   6.990   0.153   4.650 -0.7528  1.7535 -1.6266
23734SOL     OW72642   3.866   4.330   3.040  0.0130 -0.2725  0.0505
23734SOL    HW172643   3.793   4.392   3.038 -0.6329 -0.9725  0.9574
23734SOL    HW272644   3.900   4.331   2.951 -0.3662  0.9197 -0.1062
23735SOL     OW72645   2.823   5.776   5.081  0.5294 -0.5456  0.2401
23735SOL    HW172646   2.894   5.735   5.032 -0.4077 -1.6235 -0.2701
23735SOL    HW272647   2.771   5.702   5.114 -0.5874  0.2177  0.2505
23736SOL     OW72648   7.516   7.888   2.057 -0.0010  0.1234  0.0475
23736SOL    HW172649   7.542   7.821   2.120  1.0962  0.2950 -0.1987
23736SOL    HW272650   7.556   7.861   1.974 -2.2927 -0.6478 -0.8607
23737SOL     OW72651   1.691   6.724  11.782 -0.3257  0.3969 -0.9007
23737SOL    HW172652   1.680   6.735  11.877  0.8854 -0.1717 -0.6624
23737SOL    HW272653   1.732   6.805  11.754  1.1003 -0.1739 -0.5717
23738SOL     OW72654   4.943   7.710   2.098 -1.0925  0.0710  0.4588
23738SOL    HW172655   4.875   7.721   2.031 -1.7583  1.3407  1.3072
23738SOL    HW272656   4.973   7.799   2.116 -1.4860 -0.1490  2.4094
23739SOL     OW72657   5.669   5.021  11.717 -0.1650  0.2324  0.2050
23739SOL    HW172658   5.689   4.972  11.637  2.4680  2.0142 -0.3531
23739SOL    HW272659   5.734   4.992  11.780 -0.3313  0.9788  0.7371
23740SOL     OW72660   3.958   0.443   6.312  0.2550 -0.9061 -0.0023
23740SOL    HW172661   3.896   0.463   6.382  0.7791 -0.4551  0.3374
23740SOL    HW272662   3.903   0.435   6.234  0.0098  2.6660 -0.3542
23741SOL     OW72663   2.653   6.264   6.380 -0.9718  0.4065 -0.3969
23741SOL    HW172664   2.749   6.270   6.374 -0.9160  1.1106  0.9298
23741SOL    HW272665   2.638   6.191   6.440 -1.2426  1.0843  0.3610
23742SOL     OW72666   5.852   5.053   2.171  0.3802 -0.1054 -0.0274
23742SOL    HW172667   5.886   5.032   2.258  1.0752  0.7878 -0.0629
23742SOL    HW272668   5.920   5.108   2.132 -0.5328  0.6466 -0.6063
23743SOL     OW72669   5.300   6.386   8.399  0.2060 -0.0771 -0.0867
23743SOL    HW172670   5.255   6.434   8.329  3.1030  0.6369 -1.6081
23743SOL    HW272671   5.287   6.294   8.377 -2.1277  0.0011  0.6877
23744SOL     OW72672   6.517   3.945   5.690 -0.0081  0.5260  0.3668
23744SOL    HW172673   6.601   3.901   5.676  0.4716  1.3329  0.5679
23744SOL    HW272674   6.487   3.968   5.602  0.4258  1.0083  0.3386
23745SOL     OW72675   4.047   4.198   2.331  0.2347  0.2971  0.3399
23745SOL    HW172676   4.058   4.135   2.403  1.3656  0.3652  0.2486
23745SOL    HW272677   3.976   4.255   2.359  1.1739  0.8107  1.7745
23746SOL     OW72678   3.735   6.278   8.182 -0.2547 -0.2113  0.1808
23746SOL    HW172679   3.830   6.284   8.194 -0.0967  0.9189 -1.2539
23746SOL    HW272680   3.725   6.255   8.089 -1.3844 -2.3830  0.7656
23747SOL     OW72681   1.107   0.533   0.674 -0.2931 -0.8191  0.1261
23747SOL    HW172682   1.185   0.540   0.729 -1.1354 -0.0561  1.2814
23747SOL    HW272683   1.086   0.624   0.651 -1.1336 -0.9675  0.2674
23748SOL     OW72684   2.299   0.815   7.221 -0.5769 -0.0836  0.2052
23748SOL    HW172685   2.309   0.891   7.164  0.2510 -1.4615 -1.5757
23748SOL    HW272686   2.303   0.851   7.310  2.0609  1.7395 -0.5180
23749SOL     OW72687   5.686   4.420   5.940 -0.0539 -0.2396 -0.0937
23749SOL    HW172688   5.687   4.494   5.879  3.2412  0.5488  0.7392
23749SOL    HW272689   5.599   4.424   5.980 -0.4069  2.5125 -0.8956
23750SOL     OW72690   2.591   5.160  11.732 -0.2793  0.1567  0.3073
23750SOL    HW172691   2.662   5.215  11.699  0.1907 -0.5839  0.0781
23750SOL    HW272692   2.634   5.082  11.765 -0.9162  0.0645  0.9477
23751SOL     OW72693   1.261   7.470   9.165 -0.8206 -0.1350 -0.3094
23751SOL    HW172694   1.320   7.396   9.147 -0.8501 -0.1404 -0.3814
23751SOL    HW272695   1.319   7.539   9.198 -0.3054  0.9001 -3.1089
23752SOL     OW72696   0.269   4.214  12.151 -0.0920  0.1320 -0.2602
23752SOL    HW172697   0.183   4.198  12.114  0.8156  0.6909 -2.8147
23752SOL    HW272698   0.326   4.149  12.108  0.5987 -1.1783  2.4004
23753SOL     OW72699   1.392   5.820   3.489 -0.1472 -1.2052  0.2629
23753SOL    HW172700   1.431   5.896   3.534  0.3485 -0.6478 -1.0651
23753SOL    HW272701   1.305   5.850   3.463  0.9836 -0.0472 -2.6398
23754SOL     OW72702   1.308   7.698   1.961  0.4036 -0.3095  0.2966
23754SOL    HW172703   1.344   7.663   2.043  0.4132  0.3716  0.5877
23754SOL    HW272704   1.306   7.792   1.974  0.1536 -0.2151 -0.3930
23755SOL     OW72705   6.745   0.621   2.924 -0.4275  0.1400  0.4319
23755SOL    HW172706   6.649   0.618   2.923 -0.4256  0.0931  0.3651
23755SOL    HW272707   6.771   0.586   2.838 -0.4000  2.1462 -0.4480
23756SOL     OW72708   3.370   2.692  11.727 -0.0341 -0.2690  0.3247
23756SOL    HW172709   3.372   2.652  11.641 -2.4239 -0.9003  0.5012
23756SOL    HW272710   3.410   2.627  11.785  1.1033 -0.0524 -0.1831
23757SOL     OW72711   4.031   1.971   3.834  0.0584  0.1479  0.4376
23757SOL    HW172712   4.114   1.926   3.847 -0.5734 -1.4757 -0.8585
23757SOL    HW272713   4.056   2.063   3.821  1.5449 -0.1204  1.1703
23758SOL     OW72714   2.125   4.361  11.552  0.0846 -0.3332 -0.4011
23758SOL    HW172715   2.219   4.375  11.566 -0.2659  0.1234  2.0152
23758SOL    HW272716   2.117   4.267  11.538  0.8306 -0.5735  0.6144
23759SOL     OW72717   5.821   1.170   6.003  0.1785  0.5286 -0.1311
23759SOL    HW172718   5.783   1.128   5.926  0.4722 -0.3756  0.2024
23759SOL    HW272719   5.890   1.110   6.032  0.3840  1.0777  0.5673
23760SOL     OW72720   0.497   1.147   5.226  0.6171  0.6088 -0.4540
23760SOL    HW172721   0.458   1.066   5.261  2.0331  0.2257  0.3116
23760SOL    HW272722   0.544   1.119   5.147  0.2586  0.8731 -0.7644
23761SOL     OW72723   5.517   3.689   7.233 -0.3241  0.1584 -0.4989
23761SOL    HW172724   5.512   3.617   7.295 -0.0110  0.5067 -0.0548
23761SOL    HW272725   5.522   3.768   7.288  2.2374  0.3632 -0.8615
23762SOL     OW72726   2.726   1.223   9.903  0.4161 -0.2788  0.1305
23762SOL    HW172727   2.805   1.192   9.860  0.0972 -0.7072 -0.1566
23762SOL    HW272728   2.661   1.229   9.832  0.7762  2.2477 -0.0918
23763SOL     OW72729   3.655   2.065   5.819  0.8306 -0.5210 -0.6586
23763SOL    HW172730   3.697   2.092   5.901 -1.3440  1.4668 -0.0879
23763SOL    HW272731   3.627   1.975   5.835  2.0494 -0.8003  0.0641
23764SOL     OW72732   4.579   1.735   1.213 -0.0440  0.0659  0.2426
23764SOL    HW172733   4.525   1.679   1.157  2.2439 -0.7038 -1.3296
23764SOL    HW272734   4.581   1.819   1.167  0.0235  0.1199  0.3444
23765SOL     OW72735   5.757   3.951   0.241 -0.7576  0.3606  0.2256
23765SOL    HW172736   5.838   3.995   0.215 -1.3129  1.3106  0.0368
23765SOL    HW272737   5.757   3.955   0.336 -1.0703  1.3130  0.1990
23766SOL     OW72738   5.135   4.054   6.741 -0.6229  0.3491 -0.4729
23766SOL    HW172739   5.203   3.992   6.766  0.3364  0.9982 -1.3850
23766SOL    HW272740   5.098   4.017   6.661 -1.2385  0.0872 -0.0742
23767SOL     OW72741   4.115   5.881  11.465  0.8645 -0.2074 -0.2756
23767SOL    HW172742   4.172   5.816  11.505  0.7354 -1.6836 -2.3502
23767SOL    HW272743   4.042   5.890  11.526  1.7619 -0.6599  0.8948
23768SOL     OW72744   1.573   3.551   4.050  0.1922  0.7078 -0.0879
23768SOL    HW172745   1.515   3.475   4.055 -0.6898  1.3794  0.1706
23768SOL    HW272746   1.639   3.526   3.985 -1.7382  0.8194 -2.2408
23769SOL     OW72747   1.061   7.385   9.870  0.3677  0.0517 -0.3216
23769SOL    HW172748   1.133   7.448   9.879 -0.9400  1.7398 -1.0361
23769SOL    HW272749   1.050   7.349   9.958  1.3394  0.6070  0.0520
23770SOL     OW72750   4.647   4.393   3.049  0.6279  0.2939 -0.2910
23770SOL    HW172751   4.699   4.472   3.062 -0.4033  0.6654  2.1974
23770SOL    HW272752   4.679   4.332   3.115 -1.7598  0.4263  1.1135
23771SOL     OW72753   1.299   3.488   5.180 -0.2907  0.0591 -0.1119
23771SOL    HW172754   1.225   3.468   5.123 -1.2070 -0.0876  1.0998
23771SOL    HW272755   1.346   3.557   5.133 -2.4713  1.8169  0.1095
23772SOL     OW72756   4.837   5.271   5.304  0.5130 -0.6572 -0.0375
23772SOL    HW172757   4.776   5.277   5.378  0.2490  0.2264 -0.3142
23772SOL    HW272758   4.793   5.214   5.241 -0.0273 -0.0263 -0.2348
23773SOL     OW72759   2.108   7.165   3.560 -0.3848  0.7144 -0.3792
23773SOL    HW172760   2.088   7.072   3.573  0.0774  0.6044 -0.4419
23773SOL    HW272761   2.148   7.168   3.473  0.7291  0.7945  0.1198
23774SOL     OW72762   4.816   6.675   1.942 -0.0477 -0.2068 -0.1406
23774SOL    HW172763   4.879   6.610   1.912  0.3703  1.1352 -2.3811
23774SOL    HW272764   4.804   6.734   1.867 -1.6134  1.3752  1.2557
23775SOL     OW72765   1.214   0.796   4.516  0.1354 -0.4369  0.2023
23775SOL    HW172766   1.259   0.727   4.564 -0.1400  0.8096  2.3576
23775SOL    HW272767   1.154   0.750   4.458  0.7806 -2.0150  0.7442
23776SOL     OW72768   4.073   6.784   9.851  0.0270 -0.2975 -0.0526
23776SOL    HW172769   4.147   6.836   9.821 -0.9967  1.0349 -0.3975
23776SOL    HW272770   4.043   6.828   9.931 -0.8255 -0.3559 -0.3211
23777SOL     OW72771   1.339   4.943   3.001 -0.3924  0.3978  0.1223
23777SOL    HW172772   1.409   5.008   2.990  0.7402 -0.5642  1.2853
23777SOL    HW272773   1.353   4.882   2.929  2.3573 -1.8008  2.2758
23778SOL     OW72774   2.163   3.126   6.417  0.3001 -0.1497  0.2118
23778SOL    HW172775   2.160   3.069   6.340 -4.4786 -0.0960  0.0562
23778SOL    HW272776   2.190   3.211   6.384 -3.0516  0.2495 -1.9089
23779SOL     OW72777   7.004   7.729   7.630  0.7152  0.1324 -0.0906
23779SOL    HW172778   6.973   7.819   7.637  0.1797 -0.0466 -0.1056
23779SOL    HW272779   7.090   7.730   7.672  0.7841  0.6861 -0.2441
23780SOL     OW72780   0.613   7.001   6.334 -0.1993  0.2623  0.1697
23780SOL    HW172781   0.597   7.087   6.295  1.7838  0.8778  0.6076
23780SOL    HW272782   0.614   7.017   6.428  0.2950 -0.2216  0.2497
23781SOL     OW72783   7.043   5.468  10.938  0.2924 -0.4564  0.4310
23781SOL    HW172784   6.970   5.434  10.886 -0.1106  0.1881  0.5731
23781SOL    HW272785   7.094   5.521  10.877  0.5934 -0.8141  0.3601
23782SOL     OW72786   3.838   1.079   3.164  0.1115 -0.5282 -0.0626
23782SOL    HW172787   3.755   1.103   3.205  0.1766  1.3227 -0.9171
23782SOL    HW272788   3.845   1.137   3.088  2.4332 -0.2695  0.2738
23783SOL     OW72789   4.559   0.845   0.337  0.2747  0.3261  0.0290
23783SOL    HW172790   4.500   0.882   0.271 -0.7997 -0.3220  0.5877
23783SOL    HW272791   4.501   0.824   0.410  0.8394 -2.3091 -0.1987
23784SOL     OW72792   7.382   0.082  12.233  0.3815  0.1440  0.2306
23784SOL    HW172793   7.374   0.025  12.157 -0.1772 -0.0193  0.4039
23784SOL    HW272794   7.352   0.168  12.201  1.9336  0.5384 -0.2321
23785SOL     OW72795   6.363   1.971   9.266  0.5412  0.4167  0.0128
23785SOL    HW172796   6.410   2.007   9.341 -0.4043  1.2940  0.2064
23785SOL    HW272797   6.431   1.930   9.212  1.2318 -0.2685  1.3571
23786SOL     OW72798   4.267   0.432   2.680  0.0200  0.1789  0.2341
23786SOL    HW172799   4.323   0.384   2.618 -1.2904 -0.8849 -0.1697
23786SOL    HW272800   4.228   0.363   2.735 -0.8669  0.9053  0.5323
23787SOL     OW72801   6.865   7.575   4.545  0.1236 -0.0763  0.0581
23787SOL    HW172802   6.834   7.549   4.458  1.2814 -1.8431  0.1356
23787SOL    HW272803   6.942   7.628   4.528 -0.1505  0.3145  0.0058
23788SOL     OW72804   6.119   5.049   5.647 -0.2845 -0.1917  0.1770
23788SOL    HW172805   6.112   5.141   5.670 -3.6821  0.0771 -1.3548
23788SOL    HW272806   6.192   5.044   5.585 -0.5939  1.6305 -0.3767
23789SOL     OW72807   4.451   1.918  11.032 -0.3452  0.1994  0.1514
23789SOL    HW172808   4.493   1.998  11.062  1.5300 -0.5592 -0.2907
23789SOL    HW272809   4.384   1.947  10.970  0.1799  1.4184  0.1327
23790SOL     OW72810   2.341   0.107   8.719 -0.3920  0.1610 -0.2999
23790SOL    HW172811   2.378   0.098   8.806 -0.1478  1.6320 -0.2226
23790SOL    HW272812   2.294   0.191   8.721 -0.6325  0.0786 -1.4862
23791SOL     OW72813   4.949   7.107   2.998  0.2808  0.2178 -0.3342
23791SOL    HW172814   4.980   7.080   3.084  1.0816 -0.9450 -0.9695
23791SOL    HW272815   4.985   7.042   2.937  0.0252  1.2095 -1.5913
23792SOL     OW72816   1.065   4.412   6.704  0.5867  0.0208  0.6233
23792SOL    HW172817   1.003   4.393   6.775  1.0259  0.2214  1.0735
23792SOL    HW272818   1.025   4.375   6.626  0.2144 -0.4407  1.0250
23793SOL     OW72819   6.749   1.759   9.326  0.0108 -0.1977 -0.5318
23793SOL    HW172820   6.706   1.675   9.347  0.1720  0.2686  1.9556
23793SOL    HW272821   6.842   1.740   9.334  0.0671  0.0757 -0.5561
23794SOL     OW72822   4.774   2.999   9.633 -0.1798 -0.5236  0.1894
23794SOL    HW172823   4.700   2.943   9.657 -0.7129  0.1167  0.0713
23794SOL    HW272824   4.766   3.074   9.691 -0.7635  0.4654 -1.1238
23795SOL     OW72825   7.475   3.744   1.586  0.2698  0.3758  1.1498
23795SOL    HW172826   7.392   3.792   1.582 -1.4038 -2.3792 -0.1485
23795SOL    HW272827   7.509   3.764   1.673 -3.3424 -0.6859  3.0332
23796SOL     OW72828   1.387   3.490   3.133 -0.1913  0.6066  0.4176
23796SOL    HW172829   1.432   3.427   3.189 -1.0675 -2.9127 -2.4992
23796SOL    HW272830   1.456   3.547   3.099  1.0833 -0.5689  0.9863
23797SOL     OW72831   3.509   1.552   4.911 -0.0530 -0.4763  0.0807
23797SOL    HW172832   3.506   1.473   4.965  0.2618  1.7594  3.7165
23797SOL    HW272833   3.597   1.586   4.924 -0.5953  1.1416 -0.2927
23798SOL     OW72834   2.583   6.311   9.292 -0.5602 -0.0656 -0.2122
23798SOL    HW172835   2.670   6.343   9.316  0.3052 -2.6968  0.5213
23798SOL    HW272836   2.599   6.253   9.217 -0.8517 -3.8730  2.3707
23799SOL     OW72837   1.669   4.850  11.960  0.3621  0.1880  0.9852
23799SOL    HW172838   1.609   4.841  11.885 -0.0252 -0.6229  1.3800
23799SOL    HW272839   1.618   4.819  12.035  1.4699 -1.1220  1.2298
23800SOL     OW72840   0.477   2.296   1.225 -0.2947 -0.6925  0.7703
23800SOL    HW172841   0.432   2.375   1.255 -1.5633 -1.4064  0.7896
23800SOL    HW272842   0.484   2.241   1.303  0.4369 -0.6734  0.7220
23801SOL     OW72843   2.506   1.814   5.775 -0.3674 -0.1610 -0.2355
23801SOL    HW172844   2.484   1.762   5.852 -1.9429  1.5536  0.5263
23801SOL    HW272845   2.566   1.881   5.807  0.7426 -0.7569 -0.9820
23802SOL     OW72846   1.408   7.156  11.454  0.0108  0.0226  0.0345
23802SOL    HW172847   1.325   7.191  11.420 -0.5835 -0.8649  0.5376
23802SOL    HW272848   1.398   7.061  11.446  0.3116 -0.1619  1.6406
23803SOL     OW72849   5.706   7.315  11.121 -0.0020 -0.1726  0.1418
23803SOL    HW172850   5.689   7.401  11.158 -0.1501 -0.6756  1.2815
23803SOL    HW272851   5.622   7.270  11.125 -0.2280  0.0416 -1.6190
23804SOL     OW72852   3.708   4.611   4.137 -0.0735  0.2179 -0.3923
23804SOL    HW172853   3.625   4.565   4.129 -0.7941  1.4889 -0.4083
23804SOL    HW272854   3.704   4.681   4.072  0.7411  0.6861  0.0390
23805SOL     OW72855   1.259   7.486  11.338 -0.3778  0.7583  0.0061
23805SOL    HW172856   1.354   7.477  11.341 -0.3341  1.3616  0.6268
23805SOL    HW272857   1.227   7.397  11.321  0.3290  0.7084 -1.1674
23806SOL     OW72858   6.926   7.597  11.571 -0.2650  0.2142 -0.1827
23806SOL    HW172859   6.896   7.663  11.633  0.4143 -0.3327  0.7405
23806SOL    HW272860   6.978   7.536  11.623  2.3323  1.0141 -1.6832
23807SOL     OW72861   0.761   1.711  12.118  0.2679 -0.5879 -0.2473
23807SOL    HW172862   0.804   1.794  12.093  0.1835  0.3656  2.4385
23807SOL    HW272863   0.743   1.721  12.212 -3.1364 -2.1757 -0.5880
23808SOL     OW72864   7.618   7.177   3.253 -0.4569 -0.4463 -0.0854
23808SOL    HW172865   7.671   7.248   3.289 -1.7262  0.2651  0.4615
23808SOL    HW272866   7.604   7.201   3.162  2.0295 -1.8093 -0.9343
23809SOL     OW72867   5.215   2.109   6.540  0.4811  0.3468 -0.0130
23809SOL    HW172868   5.141   2.157   6.579  0.3105  0.1033 -0.0335
23809SOL    HW272869   5.190   2.097   6.448  0.6416  0.4495 -0.0691
23810SOL     OW72870   7.461   3.034   0.571 -0.1640  0.0933 -0.7583
23810SOL    HW172871   7.545   3.081   0.570  0.8206 -1.5323  0.6666
23810SOL    HW272872   7.402   3.093   0.618  1.0179  0.0277  0.9155
23811SOL     OW72873   5.092   4.958   8.355 -0.3134  0.0678  0.3240
23811SOL    HW172874   5.026   5.027   8.356  0.5518  0.9076  0.4918
23811SOL    HW272875   5.176   5.004   8.357  0.3171 -0.9384 -1.3860
23812SOL     OW72876   3.361   1.328   3.764  0.5433 -0.1747 -0.4348
23812SOL    HW172877   3.437   1.313   3.821  1.4045 -0.9151 -1.7215
23812SOL    HW272878   3.378   1.412   3.723  1.8022 -1.2773 -2.3329
23813SOL     OW72879   0.679   2.902   6.916 -0.4609 -0.0059  0.2764
23813SOL    HW172880   0.676   2.965   6.844  1.3031 -0.0640  0.0963
23813SOL    HW272881   0.591   2.864   6.919 -0.3400 -0.7205 -2.5057
23814SOL     OW72882   7.020   0.779  10.738  0.0336  0.1761  0.1098
23814SOL    HW172883   7.009   0.791  10.832  0.8982 -0.3582  0.2918
23814SOL    HW272884   6.947   0.721  10.713 -0.6517  0.9404  0.2954
23815SOL     OW72885   7.250   2.687   9.587  0.6255  0.0373 -0.6073
23815SOL    HW172886   7.289   2.774   9.580  0.6945  0.1192  0.5007
23815SOL    HW272887   7.206   2.673   9.504 -2.0733  2.4643  0.2504
23816SOL     OW72888   5.684   0.562   1.773  0.5099 -0.4046  0.2462
23816SOL    HW172889   5.705   0.500   1.703  1.2471  1.2671 -1.0658
23816SOL    HW272890   5.769   0.593   1.804  0.1917 -1.0584  1.8907
23817SOL     OW72891   2.179   5.759  10.299  0.0048  0.1755  0.3677
23817SOL    HW172892   2.220   5.813  10.231 -0.3090 -0.1293 -0.0649
23817SOL    HW272893   2.248   5.748  10.365  1.5453 -2.3977 -1.4730
23818SOL     OW72894   2.762   1.269   3.434 -0.0568  0.1248 -0.3050
23818SOL    HW172895   2.798   1.217   3.507 -0.2928  1.4995  0.8245
23818SOL    HW272896   2.668   1.252   3.436 -0.4218  2.0173  1.3083
23819SOL     OW72897   7.941   1.909   7.630  0.0289 -0.4963 -0.2046
23819SOL    HW172898   7.937   1.855   7.552 -1.0797 -1.9556  0.8140
23819SOL    HW272899   7.850   1.927   7.652  0.3668  1.7045 -0.4192
23820SOL     OW72900   6.209   0.297   1.882  0.4671  0.6269  0.0777
23820SOL    HW172901   6.174   0.360   1.819  0.8046  1.2629  0.5156
23820SOL    HW272902   6.220   0.347   1.963 -2.0033 -0.6502  1.3291
23821SOL     OW72903   4.858   3.464   4.880  0.3122  0.2484  0.0321
23821SOL    HW172904   4.806   3.544   4.874  0.1827  0.1286 -0.4689
23821SOL    HW272905   4.837   3.415   4.800  1.7587  0.5423 -0.5689
23822SOL     OW72906   1.022   7.241  11.650  0.0828 -0.1968  0.0822
23822SOL    HW172907   1.091   7.285  11.700 -0.0861 -0.3449  0.4547
23822SOL    HW272908   0.943   7.253  11.704 -0.5421  1.3836 -1.0988
23823SOL     OW72909   4.706   7.233   1.699 -0.7203  0.0995  0.1561
23823SOL    HW172910   4.638   7.297   1.674 -0.9318 -0.4564 -0.6943
23823SOL    HW272911   4.661   7.149   1.698 -0.2438 -0.1632  0.5224
23824SOL     OW72912   5.875   6.717   4.528 -0.1728 -0.0084 -0.1069
23824SOL    HW172913   5.877   6.670   4.445 -1.0485  0.0026 -0.1427
23824SOL    HW272914   5.878   6.810   4.503 -1.0041  0.0112 -0.1647
23825SOL     OW72915   1.319   1.975   0.747  0.7468  0.6260  0.6562
23825SOL    HW172916   1.396   1.928   0.778 -0.6254 -0.8230  2.1142
23825SOL    HW272917   1.264   1.984   0.826 -1.1071  0.4760 -0.5462
23826SOL     OW72918   2.970   0.028  10.113  0.2100  0.0451  0.0168
23826SOL    HW172919   3.010  -0.022  10.042  1.7079  1.0038  0.1492
23826SOL    HW272920   3.002   0.117  10.100  0.5372  0.2269  1.9083
23827SOL     OW72921   4.806   3.469   9.585  0.9654 -0.3894 -0.8959
23827SOL    HW172922   4.743   3.488   9.516  0.0897 -0.1564 -0.0495
23827SOL    HW272923   4.792   3.537   9.651 -0.0343 -2.0824  0.7235
23828SOL     OW72924   1.673   7.720   0.796  0.1886  0.1005  0.2264
23828SOL    HW172925   1.621   7.640   0.784 -1.1618  1.0465 -0.3590
23828SOL    HW272926   1.710   7.711   0.884 -1.6101 -0.2376  0.9884
23829SOL     OW72927   4.296   5.963  10.473 -0.0460 -0.1053  0.0170
23829SOL    HW172928   4.234   5.904  10.431 -0.4947 -1.6769  2.6297
23829SOL    HW272929   4.241   6.030  10.514 -0.0950 -1.3326  2.0859
23830SOL     OW72930   0.824   6.520   8.864  0.2564 -0.1561 -0.0252
23830SOL    HW172931   0.919   6.515   8.855  0.3105 -0.1365  0.5021
23830SOL    HW272932   0.790   6.451   8.807  0.6642 -1.3281  1.0968
23831SOL     OW72933   0.376   0.469   3.034 -0.3251  0.0648  0.4650
23831SOL    HW172934   0.449   0.461   2.972 -1.4131 -1.5309 -0.7145
23831SOL    HW272935   0.321   0.538   2.996 -0.0358  0.4260  0.6996
23832SOL     OW72936   1.063   6.998   8.143 -0.0096  0.0385 -0.2766
23832SOL    HW172937   1.061   7.006   8.239  2.2131 -1.9181  0.0101
23832SOL    HW272938   0.985   6.947   8.122 -0.3890  0.2795  0.4899
23833SOL     OW72939   1.591   6.010  11.656  0.3942 -0.2275 -0.1672
23833SOL    HW172940   1.527   6.038  11.591 -0.0296 -0.0293  0.3286
23833SOL    HW272941   1.565   5.920  11.678  0.3518 -0.1869 -0.0492
23834SOL     OW72942   3.122   7.022   5.975  0.2388 -0.3889  0.0858
23834SOL    HW172943   3.151   6.964   6.045  0.2222 -1.6483 -0.9143
23834SOL    HW272944   3.049   6.976   5.934  1.9044 -0.9794 -2.4419
23835SOL     OW72945   7.135   2.397   7.348  0.2761  0.0084  0.0309
23835SOL    HW172946   7.045   2.377   7.373  0.5046 -1.1136 -0.0057
23835SOL    HW272947   7.141   2.492   7.357 -1.3301  0.2879 -1.3810
23836SOL     OW72948   1.611   3.848   8.056  0.4030  0.2131  0.2881
23836SOL    HW172949   1.693   3.799   8.054  0.5086  0.3640  0.7518
23836SOL    HW272950   1.545   3.782   8.080  0.2910 -0.0300 -0.6558
23837SOL     OW72951   4.126   4.966   9.938  0.5186  0.2622 -0.3833
23837SOL    HW172952   4.096   4.892   9.886 -0.1840  0.9279 -0.9402
23837SOL    HW272953   4.212   4.939   9.971  2.0682  0.6555 -3.7349
23838SOL     OW72954   2.460   2.494   3.403 -0.0807  0.2663  0.1308
23838SOL    HW172955   2.404   2.559   3.446  1.6448  2.4423 -0.6779
23838SOL    HW272956   2.514   2.458   3.473 -0.9665 -0.2025  0.5750
23839SOL     OW72957   6.106   1.023   1.791 -0.4462 -0.2646  0.0175
23839SOL    HW172958   6.137   1.055   1.707 -0.4659  1.0810  0.4909
23839SOL    HW272959   6.184   0.992   1.837 -0.5358 -1.7469 -0.7712
23840SOL     OW72960   4.995   1.489   5.854  0.0056  0.3573 -0.2737
23840SOL    HW172961   5.012   1.443   5.936  0.8718  0.3927 -0.4312
23840SOL    HW272962   5.010   1.581   5.874 -2.5041  0.7292  0.2579
23841SOL     OW72963   1.072   5.029   1.642 -0.2151  0.0153 -0.7046
23841SOL    HW172964   1.099   5.039   1.551 -0.7759  0.0037 -0.8740
23841SOL    HW272965   0.979   5.052   1.643  0.1440  1.5831  0.1603
23842SOL     OW72966   3.861   5.019  12.216 -0.9033 -0.1168  0.2840
23842SOL    HW172967   3.807   5.096  12.202  0.7404  1.0628  0.1128
23842SOL    HW272968   3.896   5.029  12.304 -0.4295 -0.4932  0.1484
23843SOL     OW72969   4.345   0.679   4.384 -0.1744 -0.6580 -0.0954
23843SOL    HW172970   4.362   0.635   4.300 -1.6425  0.1108 -0.8346
23843SOL    HW272971   4.249   0.677   4.393 -0.0964  0.0830  1.1243
23844SOL     OW72972   2.923   7.136   7.876 -0.6991  0.2364  0.0288
23844SOL    HW172973   2.881   7.090   7.949  0.1770 -4.6319 -2.1111
23844SOL    HW272974   2.852   7.149   7.813 -0.7046  0.6979  0.1290
23845SOL     OW72975   2.520   6.735   2.719  0.1858 -0.1835  0.0868
23845SOL    HW172976   2.494   6.671   2.784 -2.7171  0.8724  0.0961
23845SOL    HW272977   2.541   6.684   2.641  1.4635 -1.3053  1.1189
23846SOL     OW72978   6.319   0.432   9.571 -0.6213 -0.4986  0.0069
23846SOL    HW172979   6.352   0.415   9.659  0.7404  1.4308 -0.0821
23846SOL    HW272980   6.390   0.406   9.512 -1.3366 -1.3230 -0.5259
23847SOL     OW72981   7.074   2.614   5.614 -0.2119 -0.0791 -0.3916
23847SOL    HW172982   6.980   2.618   5.592 -0.6164 -1.7178  0.8906
23847SOL    HW272983   7.082   2.667   5.693  0.1886  1.0666 -1.1833
23848SOL     OW72984   5.092   2.462   6.863  0.0295  0.6212  0.3486
23848SOL    HW172985   5.122   2.398   6.928  0.2125  0.7135  0.3568
23848SOL    HW272986   4.997   2.461   6.871 -0.0009 -0.0656 -0.0491
23849SOL     OW72987   0.901   2.198  11.764 -0.0816  0.6132 -0.2856
23849SOL    HW172988   0.932   2.234  11.847 -1.5172  2.8997 -0.6727
23849SOL    HW272989   0.817   2.241  11.748 -0.5205 -0.8252 -2.2413
23850SOL     OW72990   0.912   5.605  10.514  0.5681  0.1892  0.0300
23850SOL    HW172991   0.993   5.611  10.563  0.8230 -0.2180 -0.3327
23850SOL    HW272992   0.915   5.518  10.473 -0.4258 -0.1684  0.6712
23851SOL     OW72993   6.513   6.926   3.224 -0.1996  0.0769 -0.4025
23851SOL    HW172994   6.423   6.950   3.247  0.3487  0.1228  1.8781
23851SOL    HW272995   6.507   6.835   3.194 -1.0463  0.1965 -0.6214
23852SOL     OW72996   7.370   3.269   4.634 -0.0862 -0.1691  1.1497
23852SOL    HW172997   7.411   3.213   4.699  1.1639  0.9144  1.3298
23852SOL    HW272998   7.316   3.329   4.686 -0.2257 -0.2328  1.0773
23853SOL     OW72999   6.028   0.250   1.663  0.0560 -0.3850 -0.2451
23853SOL    HW173000   6.071   0.198   1.595  0.5730 -1.1441  0.6455
23853SOL    HW273001   6.064   0.217   1.745 -2.1212 -0.9855  0.5427
23854SOL     OW73002   5.495   1.944   6.906 -0.0306  0.2414  0.0931
23854SOL    HW173003   5.541   1.959   6.823  1.6445 -1.0826  0.7175
23854SOL    HW273004   5.533   2.007   6.967  0.2093 -0.1394  0.3437
23855SOL     OW73005   5.973   3.760   8.766 -0.2572 -0.1872 -0.2212
23855SOL    HW173006   6.039   3.829   8.760  1.0789 -1.4331 -0.1302
23855SOL    HW273007   5.899   3.794   8.716  1.3842  0.1749 -2.5431
23856SOL     OW73008   1.115   7.339   9.545 -0.4873  0.3018  0.3806
23856SOL    HW173009   1.164   7.406   9.592  1.9578 -2.2989  1.8617
23856SOL    HW273010   1.054   7.304   9.609  0.5909 -1.0418  0.7457
23857SOL     OW73011   4.978   4.432   2.723 -0.2874 -0.0798 -0.6329
23857SOL    HW173012   4.895   4.424   2.676 -0.8124  0.9557  0.0943
23857SOL    HW273013   4.957   4.411   2.814  0.1819  0.4364 -0.3958
23858SOL     OW73014   3.991   1.692   8.057 -0.3235 -0.1449  0.6345
23858SOL    HW173015   3.948   1.739   8.129 -0.5155  0.0019  0.4269
23858SOL    HW273016   3.920   1.646   8.013 -0.4569  0.9583 -0.3637
23859SOL     OW73017   2.973   3.413   4.423  0.3577  0.2542  0.1485
23859SOL    HW173018   3.005   3.380   4.338 -0.8447  0.0301 -0.2447
23859SOL    HW273019   2.989   3.341   4.484 -3.1413 -1.6661 -0.8978
23860SOL     OW73020   3.601   5.774   6.378 -0.4200  0.6349 -0.1725
23860SOL    HW173021   3.512   5.744   6.362 -0.5511  1.6970 -1.7233
23860SOL    HW273022   3.656   5.710   6.332 -0.4383  0.4454  0.0700
23861SOL     OW73023   6.513   3.154   2.345 -1.1452 -0.1087 -0.1663
23861SOL    HW173024   6.473   3.090   2.286 -1.1009 -0.1407 -0.1616
23861SOL    HW273025   6.492   3.122   2.432 -1.3140  0.0025 -0.1647
23862SOL     OW73026   6.105   5.395   8.146  0.4257 -0.8098 -0.3794
23862SOL    HW173027   6.157   5.331   8.097  0.9707 -0.9956  0.4247
23862SOL    HW273028   6.116   5.370   8.237 -0.2214 -0.2006 -0.1270
23863SOL     OW73029   1.770   5.883   9.396  0.1852  0.0720  0.2329
23863SOL    HW173030   1.729   5.806   9.436  0.2421  0.1944  0.5373
23863SOL    HW273031   1.862   5.877   9.421  0.4477 -0.4391 -0.8239
23864SOL     OW73032   4.391   2.224  12.218  0.5578 -0.1631 -0.3391
23864SOL    HW173033   4.360   2.229  12.309  1.8702 -0.3602  0.1447
23864SOL    HW273034   4.414   2.314  12.196 -0.5369  0.0222 -0.7798
23865SOL     OW73035   1.308   1.088   7.625  0.6197 -0.0174  0.5324
23865SOL    HW173036   1.226   1.051   7.658 -0.4605 -0.0005 -1.9006
23865SOL    HW273037   1.334   1.029   7.554  2.2379  0.4896  0.6685
23866SOL     OW73038   5.975   3.361   3.005  0.1155 -0.5664  0.0167
23866SOL    HW173039   6.046   3.420   2.981 -0.5741  0.7320  1.0627
23866SOL    HW273040   6.017   3.275   3.015  1.4393  0.0721  0.1042
23867SOL     OW73041   0.442   7.783   4.508 -0.6043 -0.4356  0.0205
23867SOL    HW173042   0.400   7.867   4.525 -0.1485 -0.3716  0.8649
23867SOL    HW273043   0.500   7.800   4.433 -0.9554 -0.1519 -0.1905
23868SOL     OW73044   3.528   7.902   7.569  0.2726 -0.2561 -0.2711
23868SOL    HW173045   3.575   7.847   7.632  0.7328 -0.4153 -0.7469
23868SOL    HW273046   3.515   7.846   7.493  1.1362  0.4073 -0.9369
23869SOL     OW73047   2.970   2.857   6.837 -0.3352 -0.7870 -0.1271
23869SOL    HW173048   2.951   2.856   6.931  2.8495  0.6925  0.6864
23869SOL    HW273049   2.962   2.766   6.810  0.4648 -1.5803  2.0763
23870SOL     OW73050   0.226   1.261   5.777 -0.0123  0.1355  0.6904
23870SOL    HW173051   0.280   1.223   5.708 -1.8325  0.6354 -1.0958
23870SOL    HW273052   0.289   1.287   5.845  2.0337  1.0051 -1.3954
23871SOL     OW73053   6.310   6.987   4.542 -0.4054  0.0374  0.4448
23871SOL    HW173054   6.280   7.075   4.521  3.2968  0.9881 -1.6584
23871SOL    HW273055   6.271   6.931   4.475 -1.2065  0.3859  0.6138
23872SOL     OW73056   1.441   0.627  12.245 -0.0271 -0.5063 -0.0719
23872SOL    HW173057   1.448   0.531  12.240  0.6343 -0.7787  3.5052
23872SOL    HW273058   1.370   0.642  12.307  0.4120  1.3170  0.0265
23873SOL     OW73059   6.330   1.184   4.306  0.3515 -0.5074 -0.4542
23873SOL    HW173060   6.315   1.263   4.357 -0.2735 -0.8080 -0.1690
23873SOL    HW273061   6.300   1.112   4.362 -1.5487 -0.7692 -1.6972
23874SOL     OW73062   3.864   5.341   5.991 -0.2449 -0.2234  0.4061
23874SOL    HW173063   3.896   5.277   5.928  0.9035 -1.2984  1.9817
23874SOL    HW273064   3.809   5.290   6.051 -0.9740  0.6746  0.5273
23875SOL     OW73065   5.407   2.081   9.605  0.1980  0.6970  0.3305
23875SOL    HW173066   5.367   2.143   9.544 -0.9079 -0.0797  0.2227
23875SOL    HW273067   5.349   2.081   9.681 -0.4666 -1.0072 -0.1294
23876SOL     OW73068   5.791   6.534   4.695  0.0082  0.2064 -0.2670
23876SOL    HW173069   5.738   6.470   4.648 -0.5812 -0.2804  1.0046
23876SOL    HW273070   5.837   6.582   4.627  0.6493 -1.7279 -1.2800
23877SOL     OW73071   6.501   5.413   8.694  0.1549  0.4630  0.1535
23877SOL    HW173072   6.411   5.401   8.664  0.6211  2.2932 -2.3395
23877SOL    HW273073   6.504   5.370   8.779 -1.9606 -3.2940 -1.4066
23878SOL     OW73074   6.106   4.329   5.851 -0.5736 -0.4575 -0.7017
23878SOL    HW173075   6.077   4.368   5.933  0.3281 -1.3298  0.0449
23878SOL    HW273076   6.036   4.267   5.828 -1.5993  0.9290 -1.4529
23879SOL     OW73077   7.820   6.585   8.864  0.2435  0.5061 -0.0675
23879SOL    HW173078   7.751   6.610   8.925 -0.1893 -0.9616  0.0636
23879SOL    HW273079   7.862   6.509   8.904  0.0131 -0.4325 -1.5223
23880SOL     OW73080   6.259   7.327   6.121  0.1904 -0.3464 -0.3386
23880SOL    HW173081   6.236   7.261   6.056 -1.7087  0.4564 -0.5421
23880SOL    HW273082   6.354   7.326   6.124  0.2838 -1.0953 -2.3985
23881SOL     OW73083   6.283   3.604  12.112  0.0776  0.3069 -0.2551
23881SOL    HW173084   6.377   3.607  12.091  0.0412  0.7112 -0.3574
23881SOL    HW273085   6.252   3.692  12.094 -0.3163  0.1819 -0.1785
23882SOL     OW73086   2.277   5.355   6.298 -0.3344 -0.4767 -0.6647
23882SOL    HW173087   2.268   5.430   6.357  1.2301 -0.6649 -0.1230
23882SOL    HW273088   2.237   5.384   6.216 -0.0712  0.8326 -0.3598
23883SOL     OW73089   1.443   2.840   7.013  0.2551 -0.2489  0.6926
23883SOL    HW173090   1.496   2.911   7.050  0.9346  0.2362 -1.0674
23883SOL    HW273091   1.426   2.869   6.923 -2.2068 -0.8544  0.9029
23884SOL     OW73092   0.628   4.296   0.840 -0.2902 -0.1667  0.1120
23884SOL    HW173093   0.647   4.304   0.747 -1.5457  0.8351 -0.0846
23884SOL    HW273094   0.574   4.372   0.861  0.0132 -0.3308  1.6779
23885SOL     OW73095   3.410   5.152  11.363  0.6641  0.1749 -0.1563
23885SOL    HW173096   3.370   5.093  11.300  0.5386 -0.0015  0.0859
23885SOL    HW273097   3.347   5.158  11.434  0.3373  1.1979 -0.5093
23886SOL     OW73098   6.484   7.742   0.263 -0.0783  0.7266  0.3649
23886SOL    HW173099   6.546   7.691   0.313 -0.6478 -0.1187  0.2277
23886SOL    HW273100   6.401   7.695   0.271 -0.8197  2.0625  0.9240
23887SOL     OW73101   5.173   6.249   9.379 -0.1589 -0.2918  1.0164
23887SOL    HW173102   5.150   6.314   9.313  0.4958 -1.0041  0.0508
23887SOL    HW273103   5.267   6.261   9.393 -0.2721 -0.2177  1.7468
23888SOL     OW73104   7.361   3.443   1.107 -0.8053  0.2081 -0.4386
23888SOL    HW173105   7.380   3.535   1.121 -0.6293  0.4107 -1.8058
23888SOL    HW273106   7.294   3.442   1.039 -0.6594 -0.6700 -0.5896
23889SOL     OW73107   1.791   5.696   9.809  0.0825 -0.8573 -0.3927
23889SOL    HW173108   1.879   5.718   9.838 -0.4883  0.6603  0.2965
23889SOL    HW273109   1.757   5.776   9.770 -0.7563 -1.6233 -1.2973
23890SOL     OW73110   0.279   5.628   4.576  0.2412 -0.3282 -0.6934
23890SOL    HW173111   0.230   5.704   4.546  2.3688  0.6449 -1.9544
23890SOL    HW273112   0.334   5.662   4.648 -1.5343 -1.6222  1.4140
23891SOL     OW73113   2.905   4.235   2.667  0.1616  0.1013 -0.0812
23891SOL    HW173114   2.878   4.213   2.756 -0.4488 -0.1104 -0.3147
23891SOL    HW273115   2.938   4.325   2.673 -0.8132  0.4455  0.1620
23892SOL     OW73116   5.896   1.888   4.429  0.6009  0.2310  0.0895
23892SOL    HW173117   5.931   1.970   4.396 -0.1408  0.8008  0.6867
23892SOL    HW273118   5.831   1.862   4.363  3.0167 -1.5547 -1.7572
23893SOL     OW73119   5.389   1.260  11.935  0.6463 -0.1266  0.2165
23893SOL    HW173120   5.394   1.355  11.944  1.5913 -0.0224 -1.0303
23893SOL    HW273121   5.316   1.246  11.874 -0.5606 -0.3201  1.6724
23894SOL     OW73122   7.234   2.752  10.819  0.1871  0.1144  0.4459
23894SOL    HW173123   7.292   2.752  10.895  1.4548  0.0377 -0.5009
23894SOL    HW273124   7.169   2.684  10.838  1.1892 -0.7238  0.9441
23895SOL     OW73125   4.530   1.664   6.001  0.1661 -0.2049  0.3886
23895SOL    HW173126   4.465   1.724   6.038  0.2863  1.5656 -1.9943
23895SOL    HW273127   4.614   1.696   6.034  0.1232  0.0500  0.2523
23896SOL     OW73128   3.675   5.752   2.037  0.7634 -0.1281 -0.2668
23896SOL    HW173129   3.744   5.747   2.103  1.1127  0.3779 -0.5799
23896SOL    HW273130   3.594   5.747   2.087  1.0145 -1.4019  0.0487
23897SOL     OW73131   0.839   4.228   0.007  0.1046 -0.2509  0.3407
23897SOL    HW173132   0.769   4.286  -0.024 -0.1834 -0.4656  0.5820
23897SOL    HW273133   0.839   4.239   0.102 -1.8429 -2.7099  0.7123
23898SOL     OW73134   7.746   0.679   8.604  0.1592 -0.7341 -0.3750
23898SOL    HW173135   7.763   0.724   8.521 -1.8396  0.1369 -0.3667
23898SOL    HW273136   7.654   0.697   8.623 -0.1370 -3.0211  0.7699
23899SOL     OW73137   7.256   4.528   5.090  0.1178  0.3109  0.0933
23899SOL    HW173138   7.164   4.504   5.096 -0.0608  0.7760 -0.7213
23899SOL    HW273139   7.256   4.623   5.082  0.7403  0.4482  1.4033
23900SOL     OW73140   7.718   3.768   1.824 -0.5049 -0.3670  0.7736
23900SOL    HW173141   7.678   3.740   1.907  0.6209 -0.3952  1.3149
23900SOL    HW273142   7.725   3.688   1.773 -0.6106 -0.4607  0.9031
23901SOL     OW73143   7.578   6.706   4.403  0.0253  0.3005  0.0727
23901SOL    HW173144   7.502   6.763   4.413 -0.1909 -0.2970  2.4012
23901SOL    HW273145   7.542   6.617   4.409  0.6691 -0.0495 -0.9588
23902SOL     OW73146   7.904   4.380   7.239  0.2771  0.2936  0.1673
23902SOL    HW173147   7.824   4.424   7.209 -0.4068 -1.3475 -0.5351
23902SOL    HW273148   7.953   4.448   7.284 -1.8603  1.1998  1.2872
23903SOL     OW73149   3.854   1.789   3.905  0.3235 -0.1691 -0.4423
23903SOL    HW173150   3.897   1.870   3.879 -2.0582  1.0680 -0.7869
23903SOL    HW273151   3.903   1.760   3.982  3.1286 -0.1271 -2.0801
23904SOL     OW73152   1.745   3.726   4.202  0.2417  0.0913 -0.8226
23904SOL    HW173153   1.723   3.708   4.294  3.2682  1.7028  0.3707
23904SOL    HW273154   1.668   3.698   4.153 -0.9477 -2.1978  2.0379
23905SOL     OW73155   2.632   2.263   7.555 -0.2203 -0.5463 -0.2944
23905SOL    HW173156   2.611   2.176   7.522 -0.0548 -1.1572  1.1550
23905SOL    HW273157   2.692   2.248   7.628 -0.2128  0.7815  0.0029
23906SOL     OW73158   3.574   5.722   0.683  0.1912 -0.3579  0.3343
23906SOL    HW173159   3.569   5.681   0.770 -0.0594  0.8219  0.9012
23906SOL    HW273160   3.615   5.656   0.628  3.4745  0.0173  2.0972
23907SOL     OW73161   4.996   3.847  11.140 -0.6847  0.0033 -0.0247
23907SOL    HW173162   4.991   3.935  11.102  0.2135 -1.0115 -2.7361
23907SOL    HW273163   4.907   3.812  11.130 -0.3405 -0.4612 -1.9568
23908SOL     OW73164   4.161   2.538   3.097 -0.5885 -0.2819  0.4874
23908SOL    HW173165   4.067   2.521   3.107 -0.6777  0.4180  0.9241
23908SOL    HW273166   4.203   2.463   3.139 -0.9218 -1.4945 -1.2487
23909SOL     OW73167   1.925   3.645   1.727 -0.8768 -0.7553 -0.1166
23909SOL    HW173168   1.940   3.662   1.820 -0.5547 -1.1861 -0.0875
23909SOL    HW273169   1.896   3.729   1.692 -1.7796 -0.7804  0.5307
23910SOL     OW73170   4.834   6.250   4.353 -0.4894  0.0069  0.3345
23910SOL    HW173171   4.740   6.254   4.338 -0.3917  0.2630 -0.2525
23910SOL    HW273172   4.846   6.275   4.444 -0.8853  1.3560  0.0387
23911SOL     OW73173   7.321   1.412   9.433 -0.1211  0.3409 -0.1658
23911SOL    HW173174   7.403   1.458   9.414  0.3877 -0.2102  0.5933
23911SOL    HW273175   7.257   1.451   9.374  0.6304  0.9656 -0.5934
23912SOL     OW73176   6.400   4.240  10.533  0.1371  0.4803 -0.6742
23912SOL    HW173177   6.315   4.196  10.541 -0.3939  1.3916 -1.2217
23912SOL    HW273178   6.411   4.286  10.616  1.6538 -2.2362  0.8051
23913SOL     OW73179   1.468   1.289   6.236  0.7793  0.7044  0.8770
23913SOL    HW173180   1.413   1.215   6.209  0.4909  0.7579  1.3003
23913SOL    HW273181   1.521   1.254   6.308  1.2682  0.6695  0.5091
23914SOL     OW73182   5.903   4.056   7.230 -0.2758 -0.2360 -0.3844
23914SOL    HW173183   5.843   4.064   7.304  1.0852  0.0767  0.7488
23914SOL    HW273184   5.864   4.108   7.161 -1.4880 -0.3663  0.1738
23915SOL     OW73185   1.104   1.398   1.832 -0.7580 -0.1892 -0.0556
23915SOL    HW173186   1.060   1.322   1.795  0.5072  0.0064 -2.1631
23915SOL    HW273187   1.061   1.473   1.790  0.0615  0.0868 -0.4320
23916SOL     OW73188   3.249   6.018  10.177 -0.1332  0.0201 -0.6100
23916SOL    HW173189   3.318   5.997  10.240  0.0423 -1.1033 -1.1562
23916SOL    HW273190   3.182   6.062  10.229  1.4125  2.1473 -0.2341
23917SOL     OW73191   2.211   7.338   7.911 -0.1309  0.0061 -0.3722
23917SOL    HW173192   2.134   7.323   7.966 -0.2364  0.2417 -0.4505
23917SOL    HW273193   2.250   7.418   7.947 -0.3823  0.3414 -0.8363
23918SOL     OW73194   3.388   5.500   8.827  0.2240 -0.3598  0.0080
23918SOL    HW173195   3.483   5.494   8.837  0.3569  2.2494  0.8588
23918SOL    HW273196   3.375   5.523   8.735  0.5091  0.4705  0.1673
23919SOL     OW73197   2.276   3.616   6.932 -0.4388 -0.0241  0.1839
23919SOL    HW173198   2.350   3.557   6.944 -0.7116 -0.2356  0.9030
23919SOL    HW273199   2.248   3.638   7.021 -1.9034 -0.7826 -0.0594
23920SOL     OW73200   3.566   7.482   8.186  0.3274  0.5051 -0.4585
23920SOL    HW173201   3.514   7.407   8.217  1.3997  0.2980  0.9255
23920SOL    HW273202   3.508   7.558   8.199 -0.0390  0.1533 -0.0049
23921SOL     OW73203   7.617   6.670   5.678  0.2037 -0.4690 -0.6517
23921SOL    HW173204   7.702   6.692   5.716 -0.0787 -0.5355  0.0497
23921SOL    HW273205   7.585   6.598   5.733 -0.2543 -0.5177 -0.9787
23922SOL     OW73206   5.898   6.872   6.889  0.1215  0.4501  0.2202
23922SOL    HW173207   5.856   6.802   6.838 -0.9049  1.0491  0.2263
23922SOL    HW273208   5.957   6.825   6.948 -0.1690 -0.3840 -0.1255
23923SOL     OW73209   5.371   5.902   3.470  0.5226  0.0141  0.0108
23923SOL    HW173210   5.366   5.997   3.460  0.1305 -0.2024 -2.5372
23923SOL    HW273211   5.302   5.868   3.412 -2.4437 -1.7884  4.0334
23924SOL     OW73212   3.976   6.649   0.931 -0.1787  0.5124  0.4863
23924SOL    HW173213   3.995   6.566   0.976 -1.0208 -0.1566 -0.3462
23924SOL    HW273214   4.033   6.713   0.974  1.1180 -0.6564  0.5886
23925SOL     OW73215   2.902   7.436   1.042  0.2152 -0.2352  0.0317
23925SOL    HW173216   2.979   7.443   0.986 -1.0993 -0.6582 -1.9086
23925SOL    HW273217   2.937   7.441   1.131  2.2152  2.0173 -0.7871
23926SOL     OW73218   0.743   1.997  10.098  0.7233  0.3152 -0.2020
23926SOL    HW173219   0.709   2.015  10.010  0.1372  0.9152  0.1420
23926SOL    HW273220   0.747   2.082  10.141 -0.6506 -0.1605  0.9390
23927SOL     OW73221   1.374   0.127   5.524  0.3834 -0.3114 -0.0737
23927SOL    HW173222   1.309   0.071   5.481  0.3136  0.3934 -0.9108
23927SOL    HW273223   1.450   0.070   5.535  0.2824 -0.6017 -0.8160
23928SOL     OW73224   7.911   7.035   7.123  0.3975  0.0552 -0.0131
23928SOL    HW173225   7.990   7.062   7.077  1.0276  0.8181  1.4710
23928SOL    HW273226   7.865   7.116   7.144  0.1101 -0.2734  0.6779
23929SOL     OW73227   5.992   2.116   9.579  0.2496  0.1125  0.0359
23929SOL    HW173228   5.947   2.042   9.539  1.9596 -1.5955  1.0813
23929SOL    HW273229   5.975   2.107   9.672  1.6974  0.1292  0.3241
23930SOL     OW73230   2.495   4.292   9.530  0.3934  0.4258 -0.2992
23930SOL    HW173231   2.470   4.206   9.497  1.0340  0.2654 -0.3773
23930SOL    HW273232   2.416   4.325   9.574 -0.5472  0.6826 -2.0505
23931SOL     OW73233   6.720   3.189   8.299 -0.4083 -0.5054 -0.4150
23931SOL    HW173234   6.634   3.155   8.277  0.1293 -3.9165  1.8937
23931SOL    HW273235   6.709   3.231   8.384  0.1159 -0.7047 -0.2424
23932SOL     OW73236   7.944   4.474   9.852  0.7009 -0.0697  0.1731
23932SOL    HW173237   7.985   4.533   9.914  1.3645  1.3882 -1.5614
23932SOL    HW273238   7.883   4.422   9.905  2.1057  0.2312  2.1978
23933SOL     OW73239   7.783   3.458   9.761  0.4994 -0.4552 -0.1790
23933SOL    HW173240   7.729   3.514   9.817  2.6475  0.2038  1.3535
23933SOL    HW273241   7.738   3.457   9.677 -0.3346  2.4876  0.1417
23934SOL     OW73242   1.391   7.125   5.323  0.0764  0.1514 -0.0903
23934SOL    HW173243   1.471   7.135   5.374  0.5019 -0.1545 -0.6838
23934SOL    HW273244   1.395   7.037   5.288 -0.6781  0.0234  0.1213
23935SOL     OW73245   4.041   0.214   6.440 -0.4786  0.6628  0.0197
23935SOL    HW173246   4.108   0.269   6.482 -1.0261  0.3188  1.3772
23935SOL    HW273247   4.014   0.264   6.363  1.1831  0.9077 -0.4434
23936SOL     OW73248   6.146   7.412  11.176 -0.0720 -0.4962 -0.1636
23936SOL    HW173249   6.099   7.494  11.167  0.5319  0.0165  1.2029
23936SOL    HW273250   6.114   7.374  11.257 -1.0328 -2.1011 -1.2264
23937SOL     OW73251   2.684   4.446   0.763 -0.2246 -0.4188 -0.6496
23937SOL    HW173252   2.667   4.536   0.735 -0.3727 -0.6231 -1.2193
23937SOL    HW273253   2.608   4.423   0.816 -0.6566 -0.5474 -1.3193
23938SOL     OW73254   7.121   6.744   9.537 -0.2765  0.2251 -0.0374
23938SOL    HW173255   7.144   6.679   9.604 -0.4376 -0.4015 -0.5764
23938SOL    HW273256   7.037   6.780   9.566 -0.2874  0.0400  0.1641
23939SOL     OW73257   3.487   3.434   7.420  0.0759  0.0592  0.2493
23939SOL    HW173258   3.521   3.386   7.495  0.2543  0.8987  0.7104
23939SOL    HW273259   3.417   3.488   7.456  0.0846  0.3789 -0.2141
23940SOL     OW73260   1.830   3.020   9.967 -0.1849  0.4839  0.0526
23940SOL    HW173261   1.862   3.095   9.917 -0.4993 -0.2711 -1.3190
23940SOL    HW273262   1.873   2.944   9.928 -1.1267 -0.2108  0.3238
23941SOL     OW73263   3.708   6.643   8.013 -0.3181  0.2329 -0.5327
23941SOL    HW173264   3.736   6.565   7.965 -0.4635 -0.4136  0.4103
23941SOL    HW273265   3.614   6.650   7.995 -0.7241 -0.9713  0.9469
23942SOL     OW73266   6.807   6.092  12.243  0.0624  0.1652  0.8295
23942SOL    HW173267   6.747   6.085  12.316 -1.1341 -0.4415 -0.1745
23942SOL    HW273268   6.833   6.002  12.224  0.8055  0.3656  0.8519
23943SOL     OW73269   5.654   6.200  10.494  0.5370 -0.1747  0.3352
23943SOL    HW173270   5.653   6.285  10.538  0.4686  0.6658 -1.2230
23943SOL    HW273271   5.609   6.141  10.555 -1.2668  1.3662  0.5932
23944SOL     OW73272   7.266   3.027   7.208  0.2726  0.6270 -0.5906
23944SOL    HW173273   7.231   2.940   7.227 -0.0955  0.6801 -1.0274
23944SOL    HW273274   7.218   3.086   7.267  1.1995  0.4245  0.4044
23945SOL     OW73275   7.922   1.637  10.428 -0.7287 -0.4673 -0.3205
23945SOL    HW173276   7.996   1.697  10.444 -1.1127  0.0676 -0.5026
23945SOL    HW273277   7.937   1.604  10.339 -0.1405 -1.1966  0.0403
23946SOL     OW73278   7.174   7.412   8.685  0.4762 -0.1241 -0.3944
23946SOL    HW173279   7.104   7.476   8.694 -0.7268 -1.2872 -1.1204
23946SOL    HW273280   7.228   7.424   8.763 -2.9541 -2.0848  2.5548
23947SOL     OW73281   3.291   0.557   6.664 -0.3246 -0.0425 -0.0454
23947SOL    HW173282   3.269   0.464   6.663  0.6481 -0.2725 -0.3492
23947SOL    HW273283   3.206   0.601   6.663 -0.8114 -0.9221  0.7141
23948SOL     OW73284   4.155   2.447  10.815 -0.3602  0.1235  0.0448
23948SOL    HW173285   4.098   2.415  10.885  0.0366 -0.5512  0.0698
23948SOL    HW273286   4.200   2.522  10.854  0.6162 -0.8587  0.8924
23949SOL     OW73287   0.410   5.394   2.532  0.0184 -0.0278 -0.0687
23949SOL    HW173288   0.467   5.470   2.524  1.2843 -1.0574 -1.2267
23949SOL    HW273289   0.458   5.333   2.588  0.4001 -1.1642 -1.5693
23950SOL     OW73290   0.107   4.792  12.063  0.3833 -0.5076 -0.1243
23950SOL    HW173291   0.021   4.812  12.026 -0.2030  1.1566  1.9660
23950SOL    HW273292   0.095   4.707  12.106  0.3442 -1.1642 -1.3676
23951SOL     OW73293   2.449   5.402   9.411  0.5257 -0.0252  0.3031
23951SOL    HW173294   2.435   5.497   9.416  0.1308 -0.0925  0.5195
23951SOL    HW273295   2.538   5.389   9.444  1.1796  0.4218 -1.1818
23952SOL     OW73296   0.929   4.293   6.130 -0.8603  0.6059 -0.6688
23952SOL    HW173297   0.844   4.307   6.172 -0.6497 -0.3385  0.0964
23952SOL    HW273298   0.936   4.364   6.066 -1.7274  1.3415  0.0345
23953SOL     OW73299   4.494   1.783   6.318 -0.6110  0.1323 -0.1541
23953SOL    HW173300   4.567   1.812   6.265 -0.7692  1.1280  0.1349
23953SOL    HW273301   4.489   1.689   6.304  2.2369 -0.4130  1.6783
23954SOL     OW73302   2.127   0.516   4.175  0.4431  0.0142 -0.2935
23954SOL    HW173303   2.167   0.520   4.088  0.4807  0.2351 -0.2653
23954SOL    HW273304   2.194   0.548   4.234  0.0560  0.8602 -0.3033
23955SOL     OW73305   5.737   5.185  10.637 -0.2197  0.2746 -0.0525
23955SOL    HW173306   5.821   5.184  10.684 -0.4869  1.1231  0.4541
23955SOL    HW273307   5.706   5.095  10.643  0.0862  0.2141  0.7936
23956SOL     OW73308   0.424   3.246   0.667 -0.5194  0.1343  0.0328
23956SOL    HW173309   0.442   3.273   0.757 -0.6366 -1.1551  0.4769
23956SOL    HW273310   0.498   3.190   0.644 -1.9340 -2.0894  0.4928
23957SOL     OW73311   1.088   0.080   2.086  0.2673 -0.6048  0.3253
23957SOL    HW173312   1.035   0.055   2.162 -0.5046  1.3126  0.4679
23957SOL    HW273313   1.051   0.163   2.057  2.3725  0.1437 -0.3951
23958SOL     OW73314   7.763   6.500   3.680  0.1992 -0.1026  0.2775
23958SOL    HW173315   7.703   6.574   3.679  1.6480  1.1102  0.4904
23958SOL    HW273316   7.722   6.435   3.622 -0.8534  1.0628 -0.3162
23959SOL     OW73317   2.975   0.734  10.481  0.0500  0.1801 -0.0020
23959SOL    HW173318   2.929   0.717  10.399  0.1581  2.5558 -0.6183
23959SOL    HW273319   3.025   0.654  10.497 -1.5196 -1.1045 -1.1722
23960SOL     OW73320   5.638   5.393   3.411 -0.2918  0.4762 -0.4183
23960SOL    HW173321   5.674   5.324   3.355 -3.2983 -0.3094 -1.5774
23960SOL    HW273322   5.617   5.348   3.493  2.1045  1.1612  0.6626
23961SOL     OW73323   5.000   2.116   1.389  0.7584  0.1641  0.0104
23961SOL    HW173324   4.987   2.190   1.330 -0.0930  0.2810  0.3335
23961SOL    HW273325   4.925   2.119   1.449  1.3004 -0.2907  0.7360
23962SOL     OW73326   3.619   2.917   9.465 -0.2666  0.1391  0.1075
23962SOL    HW173327   3.632   2.997   9.414 -0.6172 -0.0494 -0.2904
23962SOL    HW273328   3.551   2.940   9.528  0.5648  0.5402  0.8780
23963SOL     OW73329   5.315   3.582   7.710  0.4373  0.4382  0.2452
23963SOL    HW173330   5.305   3.500   7.758  0.5038  0.3729  0.1468
23963SOL    HW273331   5.225   3.613   7.697  0.4313  0.5864  0.6376
23964SOL     OW73332   6.125   4.823  11.724 -0.1998 -0.3063  0.3255
23964SOL    HW173333   6.164   4.826  11.636 -1.9852  0.1267 -0.5057
23964SOL    HW273334   6.077   4.905  11.731 -1.8853 -1.2869  0.8040
23965SOL     OW73335   2.913   3.029   6.242 -0.1471 -0.1427  0.3712
23965SOL    HW173336   2.977   3.069   6.301  0.3127  0.5929 -0.6049
23965SOL    HW273337   2.830   3.071   6.265 -0.0710 -0.2274  0.8227
23966SOL     OW73338   6.572   4.301   3.091 -0.4044  0.2874 -0.5533
23966SOL    HW173339   6.652   4.276   3.045  0.3460  2.9174 -0.8376
23966SOL    HW273340   6.603   4.342   3.171 -1.5513 -0.0759  0.0906
23967SOL     OW73341   2.666   5.477  10.948 -0.2018  0.5951  0.5812
23967SOL    HW173342   2.752   5.507  10.979 -0.4777 -0.1393  2.1663
23967SOL    HW273343   2.604   5.542  10.982 -0.5359 -0.3632  1.9290
23968SOL     OW73344   3.051   3.034  10.360 -0.2068 -0.2121 -0.2225
23968SOL    HW173345   3.025   3.102  10.298  0.8599 -0.4929 -1.0171
23968SOL    HW273346   2.970   2.991  10.385 -0.8921  1.3120  0.2493
23969SOL     OW73347   1.401   7.457  10.978 -0.2186  0.6978  0.1278
23969SOL    HW173348   1.357   7.372  10.988  0.7709  0.1989  0.3978
23969SOL    HW273349   1.432   7.457  10.888  1.1685  0.0514  0.5666
23970SOL     OW73350   0.704   5.096   4.468 -0.1946  0.4509  0.4359
23970SOL    HW173351   0.655   5.065   4.545  1.4292 -0.7567  1.0349
23970SOL    HW273352   0.698   5.024   4.405  0.0459  0.6712  0.1608
23971SOL     OW73353   4.899   3.316   2.749  0.1844 -0.6411 -0.2138
23971SOL    HW173354   4.840   3.389   2.764 -0.6926 -1.5803  1.0958
23971SOL    HW273355   4.986   3.350   2.773 -0.2575 -0.1351  0.7118
23972SOL     OW73356   5.621   7.479   2.415 -0.1916 -0.1944 -0.4223
23972SOL    HW173357   5.637   7.402   2.469  2.0308 -0.3230 -1.1607
23972SOL    HW273358   5.546   7.456   2.360 -0.4578 -1.2630  0.3672
23973SOL     OW73359   2.241   1.784   6.314  0.7980 -0.4221 -0.3357
23973SOL    HW173360   2.299   1.861   6.317  0.7468 -0.3019 -1.6521
23973SOL    HW273361   2.226   1.770   6.220 -2.2568  0.2657 -0.0225
23974SOL     OW73362   5.312   7.681   9.680 -0.8313  0.1232  0.1971
23974SOL    HW173363   5.227   7.688   9.636 -0.7162 -0.1798 -0.0734
23974SOL    HW273364   5.376   7.689   9.610 -0.5734  2.4474  0.6315
23975SOL     OW73365   4.190   7.090  11.842 -0.1763 -0.6581 -0.1164
23975SOL    HW173366   4.206   7.179  11.873 -2.3667  0.1737 -1.1665
23975SOL    HW273367   4.202   7.035  11.920 -0.0020  0.6879  0.8376
23976SOL     OW73368   5.471   3.802   9.946  0.4433 -0.5542  0.4401
23976SOL    HW173369   5.410   3.852  10.000  1.2495 -0.4023  1.2325
23976SOL    HW273370   5.525   3.754  10.009  0.0236 -2.0388 -0.2907
23977SOL     OW73371   1.756   0.975  11.146 -0.6992  0.3177  0.8718
23977SOL    HW173372   1.797   0.889  11.155  0.2781  0.5931 -0.6024
23977SOL    HW273373   1.705   0.986  11.226  0.8391 -0.7280  2.0466
23978SOL     OW73374   1.372   2.229   2.049 -0.0556  0.3574  0.0794
23978SOL    HW173375   1.357   2.265   1.961 -0.5740 -0.2402 -0.0844
23978SOL    HW273376   1.300   2.264   2.101 -0.1465  0.1522  0.0935
23979SOL     OW73377   5.642   1.487  10.731  0.2810  0.2851  0.4144
23979SOL    HW173378   5.655   1.396  10.704  0.8851  0.3201  0.5801
23979SOL    HW273379   5.654   1.487  10.825 -0.7419  0.3627  0.5556
23980SOL     OW73380   1.466   4.744   1.019 -0.9339  0.2497  0.0316
23980SOL    HW173381   1.422   4.736   0.934 -0.5957  0.1311 -0.1362
23980SOL    HW273382   1.483   4.837   1.029 -4.3376  0.8467  1.7066
23981SOL     OW73383   5.757   3.834   0.659 -0.3297 -0.1553  0.4405
23981SOL    HW173384   5.713   3.756   0.625 -1.2248  0.0859  1.0264
23981SOL    HW273385   5.801   3.805   0.739 -0.4983 -0.0978  0.5527
23982SOL     OW73386   2.310   3.878   9.205 -0.4388 -0.4811 -0.1346
23982SOL    HW173387   2.372   3.805   9.200 -0.6818 -0.6759 -0.2866
23982SOL    HW273388   2.314   3.920   9.119  0.1094  0.0219  0.1281
23983SOL     OW73389   6.972   4.874   6.259 -0.0246 -0.3060 -0.0077
23983SOL    HW173390   6.883   4.866   6.293 -0.5259 -1.2185 -1.4716
23983SOL    HW273391   7.024   4.818   6.317  0.0422  1.7932  2.1470
23984SOL     OW73392   0.223   2.573   7.598 -0.0426 -0.4978 -0.3957
23984SOL    HW173393   0.245   2.499   7.542 -1.0803  0.0466 -1.5715
23984SOL    HW273394   0.128   2.573   7.603 -0.1459  1.4075 -1.4020
23985SOL     OW73395   6.496   1.815  12.015  0.4356 -0.1609  0.2973
23985SOL    HW173396   6.417   1.761  12.022  0.6623 -1.0679 -2.7070
23985SOL    HW273397   6.465   1.897  11.976  1.0015 -0.7049 -1.3460
23986SOL     OW73398   7.079   7.927   2.883  0.2886 -0.5140  0.5701
23986SOL    HW173399   7.019   7.853   2.889  0.2480 -0.4201  1.3438
23986SOL    HW273400   7.031   8.000   2.923  0.2739 -0.0292 -0.3054
23987SOL     OW73401   0.886   1.802   2.463 -0.7233  0.2956  0.1259
23987SOL    HW173402   0.974   1.827   2.434 -0.7290  0.0850 -0.0774
23987SOL    HW273403   0.896   1.710   2.488 -0.6013  0.6010  1.2556
23988SOL     OW73404   7.159   3.469   3.334 -0.8601 -0.0103 -0.0627
23988SOL    HW173405   7.150   3.532   3.262 -0.3736  0.3517  0.1828
23988SOL    HW273406   7.115   3.512   3.408  0.3300  0.4947  0.3721
23989SOL     OW73407   5.377   3.367   2.646  0.4231 -0.4061 -0.1156
23989SOL    HW173408   5.348   3.344   2.558 -2.4989  1.7904  0.1148
23989SOL    HW273409   5.429   3.447   2.633 -0.4658  0.2328  0.1345
23990SOL     OW73410   3.159   6.210   3.404 -0.1033  0.1584 -0.4979
23990SOL    HW173411   3.121   6.244   3.485 -0.3025  0.0688 -0.5522
23990SOL    HW273412   3.214   6.136   3.433  0.3000  0.5014 -0.3856
23991SOL     OW73413   0.826   3.910   9.319  0.1839 -0.1343  0.0398
23991SOL    HW173414   0.755   3.861   9.360 -0.3190  0.0963 -0.5364
23991SOL    HW273415   0.905   3.876   9.359 -0.2010 -0.9462  0.1334
23992SOL     OW73416   6.968   3.074   8.691 -0.5579  0.2247  0.2840
23992SOL    HW173417   6.881   3.044   8.664 -0.3384  0.0333 -0.2275
23992SOL    HW273418   7.020   3.072   8.611  0.2783 -0.9657  0.8270
23993SOL     OW73419   2.992   4.346   5.328 -0.6081 -0.0497 -0.0892
23993SOL    HW173420   2.949   4.420   5.285 -2.0600  0.1262  1.5841
23993SOL    HW273421   2.963   4.270   5.279 -1.2500  0.2531 -0.1841
23994SOL     OW73422   5.099   6.825   5.970  0.0267 -0.0697  0.4256
23994SOL    HW173423   5.172   6.879   6.000 -0.0816  0.0178  0.5313
23994SOL    HW273424   5.066   6.870   5.893  0.3765 -0.3540  0.1076
23995SOL     OW73425   3.723   4.706   3.740 -0.2843  0.3813  0.2168
23995SOL    HW173426   3.683   4.622   3.761  0.2975 -0.4585 -1.8021
23995SOL    HW273427   3.689   4.766   3.806 -2.3643 -0.9734  0.4644
23996SOL     OW73428   4.762   7.676   2.289 -0.0440  0.0969  0.5013
23996SOL    HW173429   4.682   7.718   2.257  0.5564 -0.2248 -1.5608
23996SOL    HW273430   4.822   7.677   2.214  1.5752 -0.4742  1.7209
23997SOL     OW73431   0.569   7.789   6.059  0.3376  0.1826 -0.0898
23997SOL    HW173432   0.584   7.881   6.037  0.4635  1.1628  3.5858
23997SOL    HW273433   0.477   7.784   6.081  0.4780 -0.4301  0.3709
23998SOL     OW73434   5.497   2.561   1.315 -0.3251  0.1609 -0.5372
23998SOL    HW173435   5.534   2.647   1.335  0.7311 -0.9117  2.8451
23998SOL    HW273436   5.404   2.570   1.336 -0.5648  0.8694 -1.8148
23999SOL     OW73437   6.056   7.911   8.054  0.6663  0.4165  0.0217
23999SOL    HW173438   6.065   7.920   7.959 -2.2655  2.0340 -0.2226
23999SOL    HW273439   6.082   7.821   8.073  1.0437 -0.0313 -2.3411
24000SOL     OW73440   1.599   4.121  11.155  0.5546 -0.2125  0.5343
24000SOL    HW173441   1.624   4.157  11.070 -0.3238 -0.5550  0.1209
24000SOL    HW273442   1.549   4.191  11.197  1.5603  0.2102  1.0684
24001SOL     OW73443   3.816   3.989   4.668  0.4945  0.3359  0.0812
24001SOL    HW173444   3.765   4.059   4.709  0.2749  0.0605  0.2833
24001SOL    HW273445   3.874   3.958   4.737 -0.9538 -1.1742  0.6716
24002SOL     OW73446   4.166   6.494   4.171  0.3424 -0.8557  0.6043
24002SOL    HW173447   4.205   6.569   4.124 -0.2095 -1.3142 -0.6298
24002SOL    HW273448   4.208   6.496   4.257  0.1269  1.0551  0.7170
24003SOL     OW73449   6.121   5.941   8.555  0.5073 -0.1850  0.4583
24003SOL    HW173450   6.158   5.884   8.487  0.0645  0.9184 -0.7635
24003SOL    HW273451   6.031   5.911   8.565 -0.0311  0.8352 -0.8912
24004SOL     OW73452   6.187   1.103   0.347 -0.8700 -0.0809 -0.2187
24004SOL    HW173453   6.151   1.018   0.371 -0.3308 -0.7741 -1.7354
24004SOL    HW273454   6.272   1.106   0.392 -0.7107 -0.5370 -0.4784
24005SOL     OW73455   6.783   5.616   0.300  0.1706 -0.8093 -0.0859
24005SOL    HW173456   6.805   5.527   0.328 -0.3057 -1.3361 -1.3357
24005SOL    HW273457   6.705   5.606   0.246  0.9412  0.1669 -1.4469
24006SOL     OW73458   5.801   1.826  12.127 -0.2716 -0.7977  0.1144
24006SOL    HW173459   5.741   1.752  12.129  0.5075 -1.5074 -1.2453
24006SOL    HW273460   5.888   1.786  12.123  0.3947  0.1893  2.6112
24007SOL     OW73461   2.458   6.347  11.874  0.3223 -0.5972 -0.3273
24007SOL    HW173462   2.442   6.440  11.892 -0.2339 -0.7055 -0.2393
24007SOL    HW273463   2.414   6.301  11.946  1.1290 -0.9128 -0.0209
24008SOL     OW73464   6.208   1.544   9.687  0.7621  0.1283  0.1282
24008SOL    HW173465   6.197   1.465   9.740 -0.1663  0.6403  0.7308
24008SOL    HW273466   6.243   1.513   9.604 -0.9035 -1.1090 -0.1701
24009SOL     OW73467   1.844   5.612   0.958 -0.0901  0.5612  0.1869
24009SOL    HW173468   1.825   5.632   1.050  0.0295  0.1296  0.3098
24009SOL    HW273469   1.928   5.565   0.960 -1.2039 -1.5465  0.1113
24010SOL     OW73470   6.874   4.616   9.314  0.6489  0.4589 -0.2537
24010SOL    HW173471   6.877   4.703   9.274  1.3700  1.3369  1.5900
24010SOL    HW273472   6.869   4.633   9.408 -1.1259 -1.5058  0.0885
24011SOL     OW73473   6.490   0.016   0.973  0.2921 -0.2808  0.3491
24011SOL    HW173474   6.549  -0.052   1.002 -0.2804 -0.6400  0.6821
24011SOL    HW273475   6.468   0.065   1.052  1.2889  0.7700  0.0004
24012SOL     OW73476   6.165   5.964   8.823  0.0613 -0.2146  0.5156
24012SOL    HW173477   6.163   5.954   8.728  1.5031  0.0525  0.4436
24012SOL    HW273478   6.084   6.012   8.844 -0.4897 -0.6653 -0.5082
24013SOL     OW73479   1.650   5.826   5.849 -0.0407 -0.4275  0.2878
24013SOL    HW173480   1.700   5.755   5.890 -0.2552 -1.4702 -1.1955
24013SOL    HW273481   1.620   5.790   5.766 -0.6593  1.2169 -0.2450
24014SOL     OW73482   0.058   0.051   8.547 -0.3223  0.0403  0.5924
24014SOL    HW173483   0.138  -0.001   8.540 -1.2140 -1.2012 -1.9551
24014SOL    HW273484   0.085   0.141   8.528  0.5203 -0.3230  0.0246
24015SOL     OW73485   2.536   6.819   4.960 -0.0693  0.1495 -0.1349
24015SOL    HW173486   2.556   6.772   5.041 -3.3291 -2.0251 -0.4154
24015SOL    HW273487   2.569   6.762   4.891 -2.0795 -0.7900 -0.4036
24016SOL     OW73488   4.893   4.665   1.108 -0.5157  0.1261  0.3689
24016SOL    HW173489   4.800   4.655   1.128 -0.4373 -2.5898 -0.2814
24016SOL    HW273490   4.895   4.694   1.016 -0.6709  2.2652  0.9698
24017SOL     OW73491   0.981   1.318   3.404  0.2434 -0.7654  0.4969
24017SOL    HW173492   1.032   1.315   3.484  1.1252 -0.2153 -0.0234
24017SOL    HW273493   0.968   1.412   3.388 -1.6996 -0.8993  1.0836
24018SOL     OW73494   1.111   4.321  10.082 -0.3374  0.5851  1.2657
24018SOL    HW173495   1.069   4.402  10.109 -0.8086 -0.0303  2.4514
24018SOL    HW273496   1.086   4.310   9.991  1.0340  2.5689  0.5639
24019SOL     OW73497   1.688   2.671   6.900 -0.3512 -0.0878  0.2447
24019SOL    HW173498   1.635   2.744   6.933 -0.5497 -0.1859  0.1503
24019SOL    HW273499   1.769   2.675   6.950 -0.8581 -0.5539  1.1420
24020SOL     OW73500   0.810   2.258   7.658  0.0146  0.2537  0.3151
24020SOL    HW173501   0.864   2.273   7.581  0.2386 -0.9376  0.2257
24020SOL    HW273502   0.871   2.229   7.725 -0.4566 -0.8717  0.2787
24021SOL     OW73503   3.657   6.041   3.920 -0.1971  0.6478  0.4517
24021SOL    HW173504   3.678   5.988   3.997 -2.3383  0.8632  1.2415
24021SOL    HW273505   3.630   5.978   3.853  0.0040  0.5684  0.4457
24022SOL     OW73506   6.733   1.579   3.666  0.0256 -0.4812 -0.6005
24022SOL    HW173507   6.717   1.632   3.745 -0.1222 -1.9573  0.4019
24022SOL    HW273508   6.807   1.622   3.623 -0.3852  0.7984 -0.0817
24023SOL     OW73509   7.094   3.248   6.596 -0.0634 -0.1012  0.2590
24023SOL    HW173510   7.048   3.229   6.514  0.6725 -0.5089 -0.0735
24023SOL    HW273511   7.180   3.281   6.568 -0.5673  1.8397  0.8466
24024SOL     OW73512   4.513   6.690   3.728  0.2223 -0.0657  0.3457
24024SOL    HW173513   4.465   6.759   3.775 -0.2088 -0.3460  0.3275
24024SOL    HW273514   4.579   6.737   3.678 -0.9809  0.4931 -0.7904
24025SOL     OW73515   3.417   1.436   9.947 -0.3300 -0.4812  0.4116
24025SOL    HW173516   3.488   1.498   9.962 -0.1506 -0.9842  1.7735
24025SOL    HW273517   3.338   1.484   9.973 -0.3126 -0.4322  0.3731
24026SOL     OW73518   7.183   6.735   3.798  0.1747 -0.4174 -0.1004
24026SOL    HW173519   7.217   6.787   3.872  0.0687 -1.6956  0.8873
24026SOL    HW273520   7.219   6.777   3.721  0.5142  0.8110  0.6924
24027SOL     OW73521   5.955   2.663   1.007  0.0961  0.0046  0.4147
24027SOL    HW173522   5.942   2.680   0.914 -0.5213  0.3633  0.5600
24027SOL    HW273523   5.919   2.575   1.021 -0.6516  0.3133  0.4834
24028SOL     OW73524   4.782   0.285   0.332 -0.3897  0.1701  0.1519
24028SOL    HW173525   4.737   0.294   0.248 -0.6645 -2.6412 -0.0767
24028SOL    HW273526   4.874   0.303   0.312 -0.4398 -0.5557 -0.7642
24029SOL     OW73527   6.241   6.924   1.093 -0.2410 -0.0731 -0.0227
24029SOL    HW173528   6.332   6.904   1.112 -0.4850  0.1901  1.5961
24029SOL    HW273529   6.192   6.854   1.136 -0.8293  0.0693 -0.4454
24030SOL     OW73530   5.200   7.852   9.358 -0.5487  0.0787  0.5950
24030SOL    HW173531   5.152   7.769   9.364 -1.1267  0.2483 -1.1446
24030SOL    HW273532   5.186   7.894   9.443 -2.6158 -0.3625  0.5280
24031SOL     OW73533   1.468   1.036   1.145  0.4080 -0.3154 -0.2763
24031SOL    HW173534   1.494   0.945   1.129 -1.1943 -0.7075 -0.7891
24031SOL    HW273535   1.451   1.041   1.239  3.8483  0.4074  0.4580
24032SOL     OW73536   3.495   4.362   2.816 -0.0907  0.0012  0.3303
24032SOL    HW173537   3.485   4.370   2.721 -3.7863 -0.8211  0.4898
24032SOL    HW273538   3.493   4.268   2.833 -1.2536  0.1647  1.2860
24033SOL     OW73539   0.198   7.200   8.451 -0.2451  0.1701  0.1030
24033SOL    HW173540   0.200   7.106   8.433 -0.2296  0.2674 -0.4390
24033SOL    HW273541   0.289   7.225   8.463 -0.3213 -0.0686  1.3106
24034SOL     OW73542   0.699   1.539   3.211  0.1543 -0.5374 -0.5000
24034SOL    HW173543   0.785   1.509   3.184 -0.0648 -0.4898 -1.2860
24034SOL    HW273544   0.657   1.568   3.130  0.7945  3.0672  0.2759
24035SOL     OW73545   3.079   0.489   1.988  0.3856  0.3343  0.9867
24035SOL    HW173546   3.026   0.567   2.003 -0.2866 -0.0138  0.4792
24035SOL    HW273547   3.038   0.422   2.043 -2.0635 -0.9443 -2.0659
24036SOL     OW73548   3.908   0.882  10.671  0.4513  0.3964 -0.3381
24036SOL    HW173549   3.953   0.811  10.716 -0.4380  0.4692  0.7201
24036SOL    HW273550   3.850   0.839  10.608 -0.2726  0.1535  0.4761
24037SOL     OW73551   3.462   2.129   9.523  0.4346  0.1978 -0.1054
24037SOL    HW173552   3.417   2.203   9.563  1.2789  0.6057  0.0987
24037SOL    HW273553   3.431   2.052   9.572 -0.1344  0.4578 -0.0549
24038SOL     OW73554   2.942   1.508  11.713 -0.2861 -0.0378 -0.1987
24038SOL    HW173555   3.001   1.438  11.683 -1.7862 -0.7747 -1.6144
24038SOL    HW273556   2.941   1.570  11.640 -1.7416 -0.3667 -0.4822
24039SOL     OW73557   1.397   1.610  12.302  0.1174 -0.7434  0.1037
24039SOL    HW173558   1.393   1.569  12.216 -0.5101  0.3309 -0.4018
24039SOL    HW273559   1.395   1.704  12.284  0.3671 -0.4923  1.2797
24040SOL     OW73560   7.159   0.567  11.760 -0.7356  0.3351  0.0464
24040SOL    HW173561   7.190   0.518  11.837  0.4887  1.1719  0.0952
24040SOL    HW273562   7.205   0.527  11.686 -1.3382  0.0360 -0.1738
24041SOL     OW73563   7.217   5.497   3.639 -0.0723 -0.0907 -0.8035
24041SOL    HW173564   7.142   5.504   3.580  0.8445 -0.0428 -1.9919
24041SOL    HW273565   7.258   5.583   3.637  0.5875 -0.3989 -0.9598
24042SOL     OW73566   5.369   1.907   4.092  0.4892  0.0647  0.3048
24042SOL    HW173567   5.285   1.867   4.070  0.0779 -0.0087  1.8985
24042SOL    HW273568   5.409   1.926   4.007  0.5463 -3.2966 -0.5679
24043SOL     OW73569   5.720   1.793   1.766 -0.1024 -0.2993  0.4813
24043SOL    HW173570   5.789   1.727   1.760 -1.1704 -1.3124 -2.2894
24043SOL    HW273571   5.670   1.768   1.844 -0.3115 -2.6556 -0.3346
24044SOL     OW73572   3.836   1.293   2.988 -0.0063 -0.2740 -0.1809
24044SOL    HW173573   3.882   1.377   2.982  1.5920 -0.9797  1.5176
24044SOL    HW273574   3.746   1.317   3.012 -0.7628  1.1376 -3.6978
24045SOL     OW73575   3.176   5.300  11.902 -0.0903 -0.2849  0.7817
24045SOL    HW173576   3.158   5.208  11.922  0.5230 -0.6130 -0.1175
24045SOL    HW273577   3.092   5.344  11.912 -0.1115 -0.6596  2.6950
24046SOL     OW73578   0.716   3.449   2.086  0.4155  0.0221 -0.4253
24046SOL    HW173579   0.738   3.521   2.027  0.1189 -0.2900 -0.9287
24046SOL    HW273580   0.628   3.422   2.057  0.5429 -0.5634 -0.2666
24047SOL     OW73581   7.656   1.655   1.322 -0.0758  0.2794  0.0595
24047SOL    HW173582   7.624   1.641   1.411 -2.4273  0.7288 -0.6470
24047SOL    HW273583   7.641   1.571   1.278 -0.3318  0.5028 -0.2890
24048SOL     OW73584   4.656   0.501  11.742  0.0147  0.5635 -0.2669
24048SOL    HW173585   4.635   0.593  11.758 -0.2587  0.4225  0.1846
24048SOL    HW273586   4.583   0.468  11.689 -0.8976  0.0927  1.2419
24049SOL     OW73587   5.488   0.944   5.846  0.4272 -0.3241  0.4955
24049SOL    HW173588   5.510   0.982   5.931  2.3002  0.2844 -0.1986
24049SOL    HW273589   5.448   0.860   5.867 -1.1686  0.7451  2.0017
24050SOL     OW73590   2.346   2.268   8.573 -0.0932 -0.1512 -0.2128
24050SOL    HW173591   2.278   2.310   8.520 -0.5245  0.6117  0.8920
24050SOL    HW273592   2.339   2.312   8.658  1.3201 -0.5581  0.1303
24051SOL     OW73593   6.543   4.331   7.061 -0.4874 -0.1628 -0.0132
24051SOL    HW173594   6.553   4.255   7.118 -0.0052  0.0471  0.1875
24051SOL    HW273595   6.471   4.381   7.099 -0.2229 -0.0667  0.3681
24052SOL     OW73596   7.403   4.024   3.374 -0.5310 -0.3328 -0.5880
24052SOL    HW173597   7.386   4.076   3.296 -0.6138  1.2098  0.4052
24052SOL    HW273598   7.498   4.024   3.383 -0.5620  0.4439 -0.1110
24053SOL     OW73599   6.109   4.557   5.553  0.5894 -0.0527  0.0903
24053SOL    HW173600   6.120   4.471   5.513  1.9202  0.4956 -0.8012
24053SOL    HW273601   6.020   4.583   5.530  0.0619 -1.2883  0.6163
24054SOL     OW73602   1.566   1.540   1.839 -0.1957 -0.0682 -0.2537
24054SOL    HW173603   1.631   1.475   1.865 -0.0203  0.4522  0.6252
24054SOL    HW273604   1.586   1.617   1.892  0.7157  1.3424 -2.5054
24055SOL     OW73605   2.029   4.004   2.578 -0.3059 -0.6022 -0.4993
24055SOL    HW173606   2.084   4.049   2.513 -2.2963  1.2863 -0.9987
24055SOL    HW273607   2.082   4.002   2.657  0.7179  0.5559 -1.1215
24056SOL     OW73608   3.641   1.588   2.762  0.3017 -0.0320  0.0638
24056SOL    HW173609   3.560   1.639   2.775  0.7842  1.1171 -1.1701
24056SOL    HW273610   3.698   1.647   2.711  0.8567 -1.8438 -1.5156
24057SOL     OW73611   5.039   3.008   8.005 -0.0162  0.5736  0.7952
24057SOL    HW173612   5.128   2.991   7.973 -1.0784 -2.6618 -0.8867
24057SOL    HW273613   5.040   2.978   8.096  0.2734 -0.8468  0.3401
24058SOL     OW73614   5.777   0.034   9.820 -0.4350  0.6522  0.2589
24058SOL    HW173615   5.832   0.091   9.767  0.3877  0.1608  0.5635
24058SOL    HW273616   5.826   0.023   9.902  0.6093 -2.3628 -0.6380
24059SOL     OW73617   2.300   7.615  12.128  0.2513  0.3458 -0.1655
24059SOL    HW173618   2.212   7.584  12.152 -0.1784  1.4835 -0.2190
24059SOL    HW273619   2.352   7.535  12.119 -0.2938 -0.2552  1.7306
24060SOL     OW73620   3.587   1.536  11.899 -0.0727  0.0661  1.2262
24060SOL    HW173621   3.526   1.610  11.901 -0.1132  0.2019 -1.5084
24060SOL    HW273622   3.606   1.523  11.806  2.8254 -1.0311  1.8850
24061SOL     OW73623   1.609   7.779   9.819  0.0590 -0.5524 -0.4693
24061SOL    HW173624   1.570   7.768   9.733  1.9040  0.3054 -1.4615
24061SOL    HW273625   1.674   7.709   9.826  0.8260  0.1484 -0.3375
24062SOL     OW73626   6.786   7.041   6.496 -0.1137  0.1614 -0.4930
24062SOL    HW173627   6.712   7.053   6.437 -0.6730  2.0031  0.5166
24062SOL    HW273628   6.863   7.064   6.444 -0.3844 -0.3003 -1.1068
24063SOL     OW73629   7.667   3.155   7.585  0.5195 -0.1722  1.2120
24063SOL    HW173630   7.736   3.163   7.651  1.0646 -0.1372  0.6505
24063SOL    HW273631   7.629   3.243   7.580  0.0862 -0.3150  1.8885
24064SOL     OW73632   0.279   6.434  11.841  0.6879 -0.3000 -0.4819
24064SOL    HW173633   0.297   6.462  11.930  1.2613 -0.8137 -0.4278
24064SOL    HW273634   0.213   6.495  11.809 -2.8529 -2.5857  1.7594
24065SOL     OW73635   0.401   2.416   6.430 -0.3569  0.1543 -0.5476
24065SOL    HW173636   0.396   2.324   6.403 -0.1905 -0.2507  0.7611
24065SOL    HW273637   0.424   2.463   6.349  3.1522 -1.3492 -0.5939
24066SOL     OW73638   5.186   2.425  11.800  0.0768 -0.0243 -0.3679
24066SOL    HW173639   5.151   2.339  11.822  0.4924 -0.0465  0.2109
24066SOL    HW273640   5.110   2.475  11.770 -0.3566 -0.2465  0.3398
24067SOL     OW73641   0.184   6.822   3.650 -0.2102  0.3691  0.0632
24067SOL    HW173642   0.149   6.773   3.724  0.4387  1.3710  1.0711
24067SOL    HW273643   0.169   6.766   3.574 -1.3537 -0.4562  0.8788
24068SOL     OW73644   1.774   3.109   1.574  0.4545  0.0455  0.4785
24068SOL    HW173645   1.806   3.080   1.659 -0.1917 -0.4608  0.5610
24068SOL    HW273646   1.788   3.204   1.574  1.2421 -0.0694  0.8012
24069SOL     OW73647   6.919   5.477   3.886 -0.3641  0.0701 -0.3975
24069SOL    HW173648   6.924   5.569   3.862 -1.1582  0.1436 -0.2798
24069SOL    HW273649   6.953   5.474   3.976 -0.0975  0.2027 -0.4909
24070SOL     OW73650   1.856   6.997   3.097 -0.0233 -0.0457  0.5321
24070SOL    HW173651   1.864   7.091   3.080  2.1067 -0.3520 -0.3745
24070SOL    HW273652   1.812   6.962   3.020 -0.2601  0.0962  0.5996
24071SOL     OW73653   5.353   3.367  10.120 -0.3016  0.1022 -0.6548
24071SOL    HW173654   5.261   3.341  10.120 -0.5789  1.0525 -0.2172
24071SOL    HW273655   5.401   3.285  10.129 -1.1762 -0.2126  1.7781
24072SOL     OW73656   7.684   7.124   9.589  0.0107 -0.3412  0.5645
24072SOL    HW173657   7.645   7.125   9.501 -1.3633  0.7743  1.1501
24072SOL    HW273658   7.776   7.102   9.574 -0.5857 -1.9836 -0.9772
24073SOL     OW73659   1.186   4.453   0.415 -0.4701 -0.1377 -0.0404
24073SOL    HW173660   1.143   4.518   0.360 -0.7131  0.2097  0.5406
24073SOL    HW273661   1.180   4.490   0.504  1.0659 -0.0502  0.0604
24074SOL     OW73662   2.988   2.371   2.467  0.1523 -0.0105 -0.2256
24074SOL    HW173663   2.986   2.348   2.374 -2.1519  0.4546 -0.3658
24074SOL    HW273664   2.922   2.440   2.476  0.1645 -0.1924  1.7871
24075SOL     OW73665   0.705   7.395   0.093 -0.1925 -0.2785  0.1436
24075SOL    HW173666   0.796   7.369   0.079 -0.2058 -1.0286  1.2496
24075SOL    HW273667   0.657   7.355   0.020  0.3964  0.3785 -0.6121
24076SOL     OW73668   6.007   5.531   2.118 -1.0573  0.4024  0.4815
24076SOL    HW173669   6.096   5.547   2.149 -1.3576 -0.4133  1.8763
24076SOL    HW273670   6.012   5.446   2.074 -0.7561  1.2918 -1.2967
24077SOL     OW73671   1.258   0.465  10.683  0.5541 -0.8882 -0.0611
24077SOL    HW173672   1.273   0.398  10.749  1.4699 -1.4178 -0.7887
24077SOL    HW273673   1.285   0.425  10.600  2.4350  0.8124 -0.3390
24078SOL     OW73674   7.087   0.309   7.028  0.0338 -0.4278 -0.5739
24078SOL    HW173675   7.111   0.342   7.114  1.8170 -0.3964 -1.0331
24078SOL    HW273676   6.991   0.312   7.026  0.0189  1.3257  0.7106
24079SOL     OW73677   6.736   6.384   0.168 -0.1403  0.5653 -0.3008
24079SOL    HW173678   6.803   6.399   0.101  2.0901 -2.0275  1.1223
24079SOL    HW273679   6.662   6.347   0.120  0.6958  0.4593 -1.5612
24080SOL     OW73680   3.870   3.463  11.564  0.6132 -0.7629 -0.0165
24080SOL    HW173681   3.949   3.516  11.575  0.4457 -0.7166  1.1159
24080SOL    HW273682   3.879   3.393  11.629 -0.5140 -0.4506  0.5081
24081SOL     OW73683   6.088   5.860  10.061 -0.3934 -0.1219 -0.6723
24081SOL    HW173684   6.171   5.826  10.028  0.6420  1.0221  0.5899
24081SOL    HW273685   6.039   5.884   9.982  0.9513  0.2352 -1.4369
24082SOL     OW73686   4.383   2.398   4.720  0.0641  0.0921 -0.9257
24082SOL    HW173687   4.288   2.394   4.722  0.0732 -0.5796  1.6620
24082SOL    HW273688   4.411   2.306   4.714  0.4956  0.0713  0.8781
24083SOL     OW73689   7.090   2.544   2.736 -0.5651 -0.0532  0.1356
24083SOL    HW173690   7.120   2.453   2.745  0.2401 -0.0299 -1.7791
24083SOL    HW273691   7.049   2.547   2.650  1.3727  1.8598 -0.8161
24084SOL     OW73692   6.471   6.100   1.610 -0.2130 -0.3212 -0.2578
24084SOL    HW173693   6.401   6.080   1.671 -0.2046  0.5250  0.0357
24084SOL    HW273694   6.445   6.182   1.568 -0.0717 -0.7273 -1.1736
24085SOL     OW73695   6.895   2.749   0.707  0.2143  0.1704 -0.5504
24085SOL    HW173696   6.823   2.778   0.652 -1.0035  1.2655  1.4978
24085SOL    HW273697   6.956   2.823   0.709 -0.3385  0.6218  0.4868
24086SOL     OW73698   0.407   5.520  10.071  0.5654  0.1166  0.2468
24086SOL    HW173699   0.474   5.507  10.138  0.5145  2.2393  0.7643
24086SOL    HW273700   0.440   5.590  10.016 -1.1152  1.0654  0.3896
24087SOL     OW73701   7.831   4.501   9.595 -0.2080 -0.0195 -0.4652
24087SOL    HW173702   7.814   4.472   9.685  0.8579  0.6489 -0.0123
24087SOL    HW273703   7.925   4.486   9.583 -0.2780  0.2117 -1.3492
24088SOL     OW73704   0.195   5.929   4.507 -0.2957  0.0051 -0.4677
24088SOL    HW173705   0.253   5.986   4.558  0.7540  0.5784 -2.2190
24088SOL    HW273706   0.107   5.957   4.531  0.1016 -0.3848  1.7028
24089SOL     OW73707   1.911   3.920   4.096 -0.2829 -0.0097  0.3805
24089SOL    HW173708   1.973   3.961   4.157  0.2630  0.2414 -0.3179
24089SOL    HW273709   1.855   3.866   4.151  0.3097  0.0711  1.0820
24090SOL     OW73710   0.862   0.442   7.584  0.6520  0.1156  0.2574
24090SOL    HW173711   0.851   0.484   7.669  1.9718 -0.6629  0.8389
24090SOL    HW273712   0.822   0.503   7.522  1.8685  1.8964  1.1549
24091SOL     OW73713   0.403   3.598   1.575  0.3455 -0.4537  0.2314
24091SOL    HW173714   0.466   3.599   1.648 -0.5032  0.4651  0.9777
24091SOL    HW273715   0.422   3.677   1.526 -1.0575  0.5589  1.2315
24092SOL     OW73716   6.121   5.364  10.866 -0.1574  0.1195 -0.0150
24092SOL    HW173717   6.094   5.456  10.864  1.6350  0.6663 -1.2386
24092SOL    HW273718   6.149   5.349  10.956  0.9110  1.2182 -0.1458
24093SOL     OW73719   7.723   0.566   9.274 -0.0838 -0.1622  0.1025
24093SOL    HW173720   7.696   0.651   9.239  2.3904 -0.4503 -2.9245
24093SOL    HW273721   7.813   0.579   9.303  1.2153 -2.0758 -2.5505
24094SOL     OW73722   7.431   3.340   7.415 -0.7327 -0.0791 -0.1941
24094SOL    HW173723   7.453   3.390   7.494  0.1572 -0.9247  0.1189
24094SOL    HW273724   7.392   3.404   7.356 -0.9984  0.6674  0.7578
24095SOL     OW73725   0.843   1.201  10.887  0.3883  0.1947  0.4036
24095SOL    HW173726   0.892   1.263  10.941 -1.3251  3.0414 -1.0735
24095SOL    HW273727   0.757   1.242  10.875  0.1522 -0.9753 -3.1661
24096SOL     OW73728   6.203   1.948   7.477 -0.4295 -0.2728 -0.2436
24096SOL    HW173729   6.172   1.892   7.406 -1.8588  0.2149 -0.0347
24096SOL    HW273730   6.296   1.960   7.459 -1.0645  1.2928 -3.0593
24097SOL     OW73731   0.788   4.341   8.050  0.1945  0.4866  0.1262
24097SOL    HW173732   0.736   4.314   8.125 -0.0402  1.4236  0.3115
24097SOL    HW273733   0.790   4.437   8.054 -0.0311  0.5758 -1.1909
24098SOL     OW73734   6.276   2.951  11.406 -0.4275  0.3268  0.5046
24098SOL    HW173735   6.202   2.893  11.424  0.2288 -1.6200 -2.3105
24098SOL    HW273736   6.353   2.894  11.417  0.1709 -0.2899 -4.4402
24099SOL     OW73737   5.010   1.367   3.395 -0.1655 -0.3457  0.1592
24099SOL    HW173738   5.067   1.372   3.471 -0.8925  0.1133  0.6846
24099SOL    HW273739   4.984   1.458   3.378 -1.8021 -0.6562  0.7620
24100SOL     OW73740   2.688   3.892  11.541 -0.6008 -0.1327  0.5636
24100SOL    HW173741   2.758   3.957  11.529  0.0761 -0.3998  2.5588
24100SOL    HW273742   2.702   3.829  11.471 -1.1411  1.6992 -1.2968
24101SOL     OW73743   3.266   5.342   6.641  0.0634  0.2963  0.4415
24101SOL    HW173744   3.276   5.273   6.706  0.0702  0.5185  0.6772
24101SOL    HW273745   3.356   5.371   6.622  0.1213 -0.2893 -0.2371
24102SOL     OW73746   7.571   5.174   5.107  0.2240  0.1485  0.7885
24102SOL    HW173747   7.633   5.102   5.095 -0.3630 -0.2818  0.2592
24102SOL    HW273748   7.584   5.229   5.030  0.8264  0.7454  1.2994
24103SOL     OW73749   0.658   3.652   3.117 -0.0286  0.9699  0.3367
24103SOL    HW173750   0.579   3.636   3.168  0.9259  0.9442  1.8746
24103SOL    HW273751   0.667   3.748   3.115 -1.4829  1.1447 -2.1325
24104SOL     OW73752   7.234   2.185   2.213 -0.1112  0.0244  0.0056
24104SOL    HW173753   7.313   2.135   2.193 -0.0827  0.3765 -0.8197
24104SOL    HW273754   7.205   2.218   2.128  0.7098  2.6824  0.6766
24105SOL     OW73755   2.158   3.486   8.229  0.3348 -0.2625 -0.3417
24105SOL    HW173756   2.243   3.467   8.268  0.4834 -0.1901 -0.6277
24105SOL    HW273757   2.145   3.417   8.164 -0.6878 -1.3825  1.0071
24106SOL     OW73758   6.250   7.578   8.349 -0.0614  0.3138 -0.0414
24106SOL    HW173759   6.246   7.485   8.324 -0.5703 -0.3052  2.1284
24106SOL    HW273760   6.198   7.623   8.283  0.2443 -0.9361 -1.1688
24107SOL     OW73761   2.232   7.161  12.192 -0.1857  0.1717 -0.3650
24107SOL    HW173762   2.157   7.111  12.223  1.5541 -1.9272  0.7514
24107SOL    HW273763   2.263   7.208  12.270  1.4460 -1.4628  0.0515
24108SOL     OW73764   6.598   4.712   5.761 -0.1420  0.3589  0.2473
24108SOL    HW173765   6.602   4.746   5.672 -0.8861  0.2074  0.1518
24108SOL    HW273766   6.663   4.763   5.810  1.5457 -0.7242 -0.7625
24109SOL     OW73767   0.178   4.733   8.704  0.0784 -0.3712 -0.0577
24109SOL    HW173768   0.255   4.753   8.757  1.0345 -1.4754 -0.9579
24109SOL    HW273769   0.123   4.678   8.760  0.5039 -0.5224  0.2130
24110SOL     OW73770   2.703   0.587   3.849 -0.3592 -0.3304  0.1458
24110SOL    HW173771   2.659   0.654   3.797  1.2908 -0.2316 -1.1801
24110SOL    HW273772   2.693   0.506   3.799  2.0620 -0.0580 -0.9022
24111SOL     OW73773   4.608   0.919  11.322  0.4308  0.2945  0.4848
24111SOL    HW173774   4.689   0.879  11.353  1.1184  1.7840  0.6990
24111SOL    HW273775   4.577   0.972  11.396  0.3939  1.3873 -0.2855
24112SOL     OW73776   1.007   0.996   0.358  0.4755  0.3272 -0.3301
24112SOL    HW173777   0.960   0.980   0.276 -0.9059 -0.1966  0.5445
24112SOL    HW273778   1.038   0.909   0.384  1.8249  0.6337 -0.7938
24113SOL     OW73779   0.582   1.565   6.146  0.2525 -0.4648  0.5539
24113SOL    HW173780   0.592   1.618   6.067  0.2763  1.3475  1.7349
24113SOL    HW273781   0.487   1.554   6.156  0.2235 -0.1422  0.6300
24114SOL     OW73782   3.126   2.987   1.305 -0.3678  0.0992 -0.2355
24114SOL    HW173783   3.177   2.969   1.226 -0.6659  3.6332 -1.4027
24114SOL    HW273784   3.171   3.060   1.346 -1.6704 -0.0180  1.5029
24115SOL     OW73785   6.949   6.278   5.471 -0.0665 -0.3138  0.4652
24115SOL    HW173786   7.028   6.329   5.487 -0.2484 -0.2667  1.2513
24115SOL    HW273787   6.887   6.339   5.431  0.5463 -0.5423 -0.8850
24116SOL     OW73788   1.690   5.344   4.353  0.1111 -0.1387  0.1177
24116SOL    HW173789   1.631   5.408   4.392  1.5324  1.7175 -0.6080
24116SOL    HW273790   1.637   5.265   4.343 -2.3111  1.4835 -0.6827
24117SOL     OW73791   3.143   0.299   9.088  0.3112  0.1363 -0.2469
24117SOL    HW173792   3.157   0.255   9.004  3.5965 -2.4568  1.4270
24117SOL    HW273793   3.230   0.325   9.116 -0.5746  0.3791  2.6139
24118SOL     OW73794   3.113   2.857   1.002 -0.0586 -0.7657 -0.5545
24118SOL    HW173795   3.043   2.795   0.982  0.0587 -0.7717 -0.9499
24118SOL    HW273796   3.193   2.805   0.998 -0.1238 -1.0598  1.2074
24119SOL     OW73797   1.774   6.682   6.893  0.2551 -0.5028  0.0647
24119SOL    HW173798   1.819   6.766   6.887  2.5375 -1.4719  1.6658
24119SOL    HW273799   1.807   6.632   6.819  1.3564 -0.9678  0.8342
24120SOL     OW73800   4.109   5.189   9.586 -0.2835 -0.1913  0.3187
24120SOL    HW173801   4.107   5.097   9.557  1.0184 -0.1731  0.0971
24120SOL    HW273802   4.199   5.217   9.569 -0.9817  1.5315 -0.8504
24121SOL     OW73803   3.701   7.286   8.655 -0.4732  0.2256  0.4404
24121SOL    HW173804   3.729   7.217   8.595  1.5854  1.8904 -0.6578
24121SOL    HW273805   3.721   7.252   8.742  0.6654 -0.5342 -0.0878
24122SOL     OW73806   6.948   6.960  11.184  0.2740  0.6772  0.0504
24122SOL    HW173807   6.926   6.875  11.223 -0.6137  0.3774 -1.0489
24122SOL    HW273808   6.946   7.021  11.258 -1.7032  0.1828  0.4705
24123SOL     OW73809   6.679   1.381   6.408  0.0537 -0.5228 -0.6292
24123SOL    HW173810   6.744   1.366   6.477 -0.3588  0.9094  0.1197
24123SOL    HW273811   6.701   1.467   6.372 -1.8406  0.3837  0.1999
24124SOL     OW73812   6.900   2.111   9.569 -0.0958  0.1869 -0.3518
24124SOL    HW173813   6.844   2.034   9.562  0.7951 -0.5960  0.7532
24124SOL    HW273814   6.844   2.185   9.543 -1.4652 -0.6217  0.2342
24125SOL     OW73815   4.696   6.715   2.413  0.2397  0.1294  0.2298
24125SOL    HW173816   4.674   6.806   2.437  1.5355  1.0442 -1.7930
24125SOL    HW273817   4.767   6.724   2.350  1.2447 -2.3888  0.9168
24126SOL     OW73818   4.521   3.911   1.944 -0.6954  0.1410 -0.2084
24126SOL    HW173819   4.605   3.950   1.919 -0.0968 -1.5948 -1.1178
24126SOL    HW273820   4.485   3.880   1.861 -1.0239 -1.3721  0.4783
24127SOL     OW73821   0.222   1.278   9.259 -0.2415 -0.1920 -0.3015
24127SOL    HW173822   0.285   1.262   9.189 -0.9679  0.3210 -1.1007
24127SOL    HW273823   0.256   1.356   9.304  0.2573 -0.5558 -0.0404
24128SOL     OW73824   4.792   1.162   9.585  0.0587 -0.0284 -0.5974
24128SOL    HW173825   4.870   1.120   9.621  1.0126  2.7046  0.8146
24128SOL    HW273826   4.805   1.160   9.490 -0.5220 -3.7331 -0.7464
24129SOL     OW73827   5.903   1.782   5.696 -0.0999 -0.2094  0.0353
24129SOL    HW173828   5.939   1.805   5.610  0.6532 -1.1197  0.0982
24129SOL    HW273829   5.858   1.699   5.681 -2.7913  1.1695 -0.1894
24130SOL     OW73830   0.134   3.416   9.445  0.3658 -0.4727 -0.3057
24130SOL    HW173831   0.053   3.395   9.399  0.0202 -0.0507  0.0940
24130SOL    HW273832   0.125   3.508   9.468  0.4306 -0.7237  0.7864
24131SOL     OW73833   1.327   1.839   7.149  0.3214  0.2147 -0.5581
24131SOL    HW173834   1.243   1.801   7.124  0.2648 -0.7248  0.9870
24131SOL    HW273835   1.388   1.808   7.083 -0.2326 -0.4239 -0.7792
24132SOL     OW73836   2.805   6.455   1.698 -0.1469  0.1200 -0.0903
24132SOL    HW173837   2.896   6.479   1.715 -0.2646  0.1354  0.5596
24132SOL    HW273838   2.766   6.534   1.660  0.1597  0.0458 -0.5682
24133SOL     OW73839   5.493   0.757   8.769  0.3474 -0.3443 -0.0995
24133SOL    HW173840   5.567   0.723   8.819  0.6559  0.6040  0.1078
24133SOL    HW273841   5.497   0.851   8.782 -0.2567 -0.1887 -0.9826
24134SOL     OW73842   4.346   3.143  10.128  0.2096 -0.0814 -0.1976
24134SOL    HW173843   4.260   3.104  10.112  0.1481 -1.5329  2.8399
24134SOL    HW273844   4.407   3.091  10.075 -0.4935 -0.8997 -0.2320
24135SOL     OW73845   5.435   2.181   8.496  0.2881 -0.0346 -0.2017
24135SOL    HW173846   5.362   2.160   8.437  1.7480 -2.9899 -1.1150
24135SOL    HW273847   5.395   2.183   8.583 -1.3705  1.4580 -0.9235
24136SOL     OW73848   3.170   4.005   9.776  0.1323 -0.2404 -0.7710
24136SOL    HW173849   3.186   4.099   9.777  1.6148 -0.4532  0.9411
24136SOL    HW273850   3.213   3.974   9.696  0.0521  0.4572 -1.0942
24137SOL     OW73851   5.323   5.954   5.709  0.0511  0.3044 -0.2367
24137SOL    HW173852   5.278   6.037   5.726 -0.1124 -0.0213  0.9898
24137SOL    HW273853   5.369   5.969   5.626  1.6343  2.3288  0.9061
24138SOL     OW73854   1.310   5.962   0.145 -0.3308 -0.2754 -0.1608
24138SOL    HW173855   1.397   5.921   0.145 -0.6148 -0.9034 -1.0406
24138SOL    HW273856   1.260   5.912   0.210  0.6790  1.7548  2.3565
24139SOL     OW73857   4.025   4.998  12.006  0.3654 -0.6568  0.2346
24139SOL    HW173858   3.984   5.004  12.092  0.5103  1.5483  0.2055
24139SOL    HW273859   3.951   4.995  11.945  0.2525 -0.5034  0.3622
24140SOL     OW73860   3.470   4.938   7.013  0.3958  0.0039  0.1348
24140SOL    HW173861   3.527   4.880   7.064  2.0223 -1.1162 -2.7138
24140SOL    HW273862   3.387   4.890   7.007  1.8628 -2.5053 -2.6044
24141SOL     OW73863   2.449   3.769   4.644 -0.1934  0.2786 -0.2819
24141SOL    HW173864   2.515   3.809   4.702  0.0645  0.1916 -0.5119
24141SOL    HW273865   2.436   3.681   4.680 -0.2773  0.3393 -0.1624
24142SOL     OW73866   4.031   6.986   3.005 -0.0890 -0.4105  0.0183
24142SOL    HW173867   3.958   6.968   2.945 -0.2139 -0.2769  0.1308
24142SOL    HW273868   4.013   7.073   3.041  0.5770 -0.0064 -0.6043
24143SOL     OW73869   5.317   3.350  10.962 -0.3491  0.2826  0.1886
24143SOL    HW173870   5.413   3.356  10.971 -0.1370 -1.4028 -0.5009
24143SOL    HW273871   5.293   3.427  10.912  0.4079  1.6389  1.8157
24144SOL     OW73872   0.164   0.186   9.804  0.3390  0.1304  0.5704
24144SOL    HW173873   0.249   0.144   9.815  1.0588  0.7294 -2.0339
24144SOL    HW273874   0.168   0.263   9.861  0.8773 -0.6788  1.6737
24145SOL     OW73875   4.881   4.909  11.675 -0.4079 -0.0301  0.0510
24145SOL    HW173876   4.829   4.959  11.612 -1.2118 -0.3233  0.4720
24145SOL    HW273877   4.856   4.818  11.659  0.1428 -0.1943  0.1145
24146SOL     OW73878   4.773   5.531   4.914  0.3390 -0.1526 -0.1314
24146SOL    HW173879   4.703   5.514   4.976  0.5105 -0.6934 -0.0774
24146SOL    HW273880   4.751   5.615   4.874 -0.0446 -0.0552  0.2819
24147SOL     OW73881   7.814   7.610   4.883  0.1849 -0.3687  0.0263
24147SOL    HW173882   7.873   7.555   4.935 -0.5334 -1.7010 -0.5158
24147SOL    HW273883   7.834   7.588   4.792 -0.0013  0.4053 -0.2101
24148SOL     OW73884   6.458   0.302   3.862 -0.7109 -0.6530  0.2586
24148SOL    HW173885   6.370   0.338   3.853 -0.6716 -0.4402  0.6826
24148SOL    HW273886   6.446   0.207   3.861 -0.7676 -0.6565 -1.3784
24149SOL     OW73887   4.037   4.975   6.060 -0.6898  0.1172  0.0062
24149SOL    HW173888   4.047   4.975   5.964  0.7555  0.3505  0.1394
24149SOL    HW273889   3.945   4.951   6.074 -0.9787  0.2724 -1.4419
24150SOL     OW73890   7.543   6.219   4.065 -0.2459 -0.1358  0.0269
24150SOL    HW173891   7.502   6.303   4.042 -0.4412 -0.5678 -1.2931
24150SOL    HW273892   7.482   6.153   4.032 -1.5194 -0.9279  3.4710
24151SOL     OW73893   0.493   3.923   9.962  0.1523 -0.3469 -0.2823
24151SOL    HW173894   0.569   3.981   9.954  0.6261 -1.1340 -1.7848
24151SOL    HW273895   0.502   3.883  10.048  1.5222 -0.5291 -0.4987
24152SOL     OW73896   2.545   2.878  10.978 -0.5811  0.1606 -0.3718
24152SOL    HW173897   2.459   2.836  10.981 -0.9934  0.8363 -1.8551
24152SOL    HW273898   2.540   2.939  10.905  0.6830  1.3097  0.4310
24153SOL     OW73899   4.184   6.489   2.708 -0.7788  0.9952 -0.3770
24153SOL    HW173900   4.187   6.395   2.723  1.6956  0.9828 -0.5968
24153SOL    HW273901   4.140   6.524   2.787  0.1380 -0.1691  0.6876
24154SOL     OW73902   5.211   0.510   4.054 -0.5147 -0.0089  0.1439
24154SOL    HW173903   5.255   0.433   4.088 -0.0344  0.1458 -0.1192
24154SOL    HW273904   5.156   0.477   3.983  1.0726  0.1193 -1.1904
24155SOL     OW73905   6.570   5.709   0.646  0.1027 -0.2064  0.2231
24155SOL    HW173906   6.619   5.752   0.577 -0.1568 -1.2232 -0.6198
24155SOL    HW273907   6.621   5.631   0.668 -0.7344 -0.8791 -0.1449
24156SOL     OW73908   0.452   2.277   4.051 -0.3677  0.7088  0.5853
24156SOL    HW173909   0.496   2.222   4.116  0.2693 -0.2948 -0.6461
24156SOL    HW273910   0.524   2.311   3.997 -1.0004 -0.1229 -0.8234
24157SOL     OW73911   1.532   1.151  10.340  0.0819  0.2926  0.4435
24157SOL    HW173912   1.490   1.143  10.254  2.1481 -0.3636 -0.5697
24157SOL    HW273913   1.543   1.245  10.353  2.3378  0.3552 -1.4047
24158SOL     OW73914   2.930   2.460  10.422 -0.1105 -0.3901  0.5031
24158SOL    HW173915   2.991   2.417  10.482  2.0094  1.4478 -0.1936
24158SOL    HW273916   2.982   2.527  10.378 -2.2661  0.2146 -1.3628
24159SOL     OW73917   6.314   2.697   9.369  0.6175  0.2798 -0.1963
24159SOL    HW173918   6.246   2.639   9.336 -0.9178  0.8762  1.7945
24159SOL    HW273919   6.378   2.638   9.409  0.1818 -0.1690 -0.1489
24160SOL     OW73920   6.890   1.904   4.602 -0.1989  0.0876 -0.3561
24160SOL    HW173921   6.986   1.895   4.604 -0.0927  0.7986 -1.6418
24160SOL    HW273922   6.874   1.984   4.552 -1.4901 -0.4869 -0.9013
24161SOL     OW73923   7.610   3.492   4.016 -0.5260 -0.2332  0.2001
24161SOL    HW173924   7.608   3.575   3.968  0.2171  1.4401  2.8301
24161SOL    HW273925   7.602   3.425   3.948 -2.5149  1.9642 -1.9568
24162SOL     OW73926   2.207   6.507   2.038  0.0353 -0.0264  0.4345
24162SOL    HW173927   2.127   6.461   2.063 -0.1303 -0.4015 -0.7248
24162SOL    HW273928   2.277   6.460   2.083 -0.3254 -0.0901  0.9458
24163SOL     OW73929   6.378   1.074  11.278 -0.0935 -0.1190 -0.1184
24163SOL    HW173930   6.327   1.017  11.221 -0.8730  1.0795 -0.6530
24163SOL    HW273931   6.370   1.034  11.365  0.7244 -1.6990 -0.7328
24164SOL     OW73932   1.160   2.250   4.596  0.0310  0.3534 -0.1882
24164SOL    HW173933   1.127   2.163   4.573 -0.7929  0.8596 -0.9886
24164SOL    HW273934   1.123   2.308   4.530  1.2674  1.1940 -0.1643
24165SOL     OW73935   7.477   6.858   8.123 -0.3172 -0.4947 -0.6804
24165SOL    HW173936   7.390   6.895   8.110  0.1585  0.8323 -0.1623
24165SOL    HW273937   7.499   6.879   8.213  0.2803 -1.4047 -0.6052
24166SOL     OW73938   7.278   3.665   2.866  0.0895  0.2641  0.6612
24166SOL    HW173939   7.199   3.716   2.885  0.8162  1.6976 -0.0149
24166SOL    HW273940   7.350   3.723   2.888  1.0178 -1.5184  2.5752
24167SOL     OW73941   2.805   1.153  11.616 -0.0703 -0.1295  0.1240
24167SOL    HW173942   2.716   1.188  11.619  0.1883  0.6833 -1.0761
24167SOL    HW273943   2.802   1.075  11.673 -1.5502 -0.1497  0.0565
24168SOL     OW73944   1.124   3.894   5.272  0.1517 -0.3731  0.5604
24168SOL    HW173945   1.108   3.988   5.280 -1.1723 -0.6368  1.4081
24168SOL    HW273946   1.216   3.887   5.247 -0.0593  1.1800 -0.7677
24169SOL     OW73947   7.863   7.397   7.448 -0.2104  0.1540  0.2492
24169SOL    HW173948   7.894   7.395   7.357  0.9824 -0.0850  0.6547
24169SOL    HW273949   7.768   7.394   7.440 -0.0983 -1.0348 -0.9591
24170SOL     OW73950   5.436   1.648   3.045  0.1075 -0.1462 -0.1624
24170SOL    HW173951   5.526   1.618   3.038  0.8283  1.4978  1.2531
24170SOL    HW273952   5.394   1.587   3.106  1.1103  0.7323  1.4724
24171SOL     OW73953   6.745   0.907   6.971  0.5086  0.1811 -0.1702
24171SOL    HW173954   6.762   0.845   6.901 -0.8037 -0.0469 -0.3156
24171SOL    HW273955   6.791   0.871   7.047 -0.0216 -0.8569 -0.3181
24172SOL     OW73956   3.586   7.744   5.455  0.4928  0.1413  0.1599
24172SOL    HW173957   3.559   7.742   5.546 -1.2192  2.0506 -0.2398
24172SOL    HW273958   3.588   7.652   5.428  1.6082 -0.5095  2.2231
24173SOL     OW73959   5.821   4.309   8.186 -0.7702 -0.0816  0.1891
24173SOL    HW173960   5.869   4.242   8.236 -0.2232  1.5712  2.0392
24173SOL    HW273961   5.733   4.274   8.178 -0.4074 -1.1868  0.7852
24174SOL     OW73962   5.907   5.450   3.300  0.0615  0.1688 -0.4534
24174SOL    HW173963   5.860   5.372   3.331 -1.3184  1.3635  0.6152
24174SOL    HW273964   5.924   5.433   3.207 -0.0332 -1.4624 -0.2002
24175SOL     OW73965   3.536   0.340   5.111 -0.2779  0.0886 -0.1853
24175SOL    HW173966   3.498   0.426   5.092 -0.4646 -0.1092 -0.7035
24175SOL    HW273967   3.631   0.357   5.117 -0.4958  0.9964  3.1901
24176SOL     OW73968   3.990   6.929  11.061 -0.9794  0.5915 -0.3074
24176SOL    HW173969   3.919   6.986  11.090 -2.3118 -1.0945 -0.1465
24176SOL    HW273970   3.998   6.863  11.130  1.1876  1.0681 -0.0145
24177SOL     OW73971   7.817   4.005   5.451 -0.2776 -0.3870 -0.3596
24177SOL    HW173972   7.818   4.084   5.505  0.5501 -1.5219  1.4135
24177SOL    HW273973   7.908   3.994   5.424 -0.1597 -1.2984  0.3486
24178SOL     OW73974   2.784   7.159   5.616  1.2874  0.1243  0.0463
24178SOL    HW173975   2.836   7.168   5.536  0.9015  1.4897 -0.0671
24178SOL    HW273976   2.701   7.123   5.587  1.7550 -1.0238  0.0823
24179SOL     OW73977   2.407   6.631   9.148  0.3712 -0.0988 -0.1524
24179SOL    HW173978   2.464   6.706   9.134 -0.8106  0.9231  0.2781
24179SOL    HW273979   2.440   6.564   9.088  1.8656  0.5144 -0.0656
24180SOL     OW73980   4.496   0.103   5.081 -0.0038 -0.6496 -0.1187
24180SOL    HW173981   4.409   0.120   5.044 -0.9957 -0.8340  1.9704
24180SOL    HW273982   4.491   0.013   5.112  0.8118 -0.5473  0.3215
24181SOL     OW73983   5.555   1.753   1.490  0.0141  0.1415  0.1142
24181SOL    HW173984   5.593   1.757   1.578 -0.2516  1.3421  0.1976
24181SOL    HW273985   5.525   1.843   1.473 -1.4097 -0.4251 -0.5533
24182SOL     OW73986   4.278   2.677   6.856 -0.3752  0.1195 -0.2211
24182SOL    HW173987   4.220   2.723   6.795  1.0252 -0.5930 -2.2302
24182SOL    HW273988   4.327   2.746   6.901 -0.7749  0.6590 -0.6120
24183SOL     OW73989   0.141   1.523  11.918  0.4592 -0.0711 -0.3667
24183SOL    HW173990   0.149   1.453  11.983 -2.5109 -1.5358 -1.4193
24183SOL    HW273991   0.104   1.597  11.966 -2.3016 -1.3376 -0.3758
24184SOL     OW73992   5.404   2.795   0.867 -0.8838  0.5349  0.3210
24184SOL    HW173993   5.394   2.874   0.814 -0.4959  0.9924  0.9192
24184SOL    HW273994   5.443   2.825   0.949  0.5474 -0.4719  0.0518
24185SOL     OW73995   4.181   5.017   0.615  1.0319  0.0650 -0.2681
24185SOL    HW173996   4.133   5.089   0.656 -1.5269 -1.4523 -0.3659
24185SOL    HW273997   4.217   4.968   0.688 -0.6371 -0.7274  0.0808
24186SOL     OW73998   2.901   6.814   1.670 -0.2761 -0.1847  0.1593
24186SOL    HW173999   2.824   6.829   1.615 -0.2977  0.5428  0.3666
24186SOL    HW274000   2.866   6.793   1.756 -0.2488 -2.0243 -0.2476
24187SOL     OW74001   1.267   3.252  12.354  0.5171 -0.0389 -0.2604
24187SOL    HW174002   1.175   3.264  12.332  0.5302 -0.9395 -0.8532
24187SOL    HW274003   1.304   3.205  12.279  1.6325  0.9785 -0.3899
24188SOL     OW74004   0.937   2.813   9.276 -0.3946 -0.2254 -0.1909
24188SOL    HW174005   0.974   2.760   9.347 -0.4973 -0.2912 -0.1857
24188SOL    HW274006   0.913   2.750   9.208  0.2957 -0.1064 -0.5528
24189SOL     OW74007   1.289   0.666   1.329  0.3231  0.1611  0.7146
24189SOL    HW174008   1.208   0.622   1.303 -0.1441  0.9455  0.7856
24189SOL    HW274009   1.347   0.596   1.359 -0.1163 -0.4688  0.1091
24190SOL     OW74010   2.345   5.863   1.754  0.1148  0.3291  0.0657
24190SOL    HW174011   2.369   5.929   1.689  1.0745  0.8303  0.9003
24190SOL    HW274012   2.424   5.809   1.763 -0.9163 -1.4862 -1.2143
24191SOL     OW74013   3.178   0.741   9.690 -0.1851 -0.3139 -0.0594
24191SOL    HW174014   3.120   0.776   9.757  0.3304 -0.4316  0.4536
24191SOL    HW274015   3.266   0.761   9.721  0.0678 -0.6697 -0.5325
24192SOL     OW74016   5.603   3.650   8.169  0.0388 -0.1747  0.0563
24192SOL    HW174017   5.539   3.715   8.141 -0.7049 -0.5352  0.8680
24192SOL    HW274018   5.553   3.588   8.222  1.1947 -0.0017  1.4205
24193SOL     OW74019   7.282   7.707   4.992 -0.0067  0.1600 -0.9695
24193SOL    HW174020   7.374   7.702   4.966  0.6016 -1.8267  1.2935
24193SOL    HW274021   7.275   7.650   5.068 -2.8753  1.2234 -0.3120
24194SOL     OW74022   5.911   1.294   7.184 -0.5999  0.1117  0.1309
24194SOL    HW174023   5.969   1.340   7.244  0.4382 -0.0927 -0.6801
24194SOL    HW274024   5.879   1.219   7.234  0.8902 -0.5170  0.2058
24195SOL     OW74025   1.436   7.292  10.216  0.4969 -0.4006  0.1532
24195SOL    HW174026   1.362   7.347  10.240  0.1300  0.5038 -2.6421
24195SOL    HW274027   1.396   7.208  10.190  0.4223 -0.0272 -1.0217
24196SOL     OW74028   4.675   3.879   5.131 -0.3307  0.5331 -0.7223
24196SOL    HW174029   4.716   3.857   5.048  0.3161 -0.8759 -0.0802
24196SOL    HW274030   4.592   3.830   5.130 -0.3501  0.5620 -0.5748
24197SOL     OW74031   1.708   7.915   8.879  0.1148 -0.4319 -0.4069
24197SOL    HW174032   1.715   8.010   8.893 -1.3252 -0.5772  1.8460
24197SOL    HW274033   1.755   7.899   8.798  1.3433  2.0586 -0.2758
24198SOL     OW74034   1.302   3.758   2.438  0.6259  0.5791 -0.3261
24198SOL    HW174035   1.292   3.684   2.378  2.7408  1.7563 -2.2999
24198SOL    HW274036   1.281   3.722   2.524  0.7103 -2.0735 -1.3267
24199SOL     OW74037   6.427   3.847   3.277  0.2723 -0.1985  0.2348
24199SOL    HW174038   6.496   3.841   3.343  2.4992 -1.5290 -2.0025
24199SOL    HW274039   6.447   3.929   3.230 -0.1543 -0.1795  0.0824
24200SOL     OW74040   0.349   2.029   5.175  0.1244  0.4270  0.2051
24200SOL    HW174041   0.338   2.087   5.250  1.4480 -0.1210  0.8579
24200SOL    HW274042   0.357   1.941   5.213 -0.6512 -0.0494 -0.6859
24201SOL     OW74043   7.798   4.009   1.698 -0.1515  0.1869 -0.1969
24201SOL    HW174044   7.802   3.927   1.748 -1.0342  0.7464  0.8342
24201SOL    HW274045   7.705   4.033   1.698  0.0447  0.9952 -0.8232
24202SOL     OW74046   2.312   0.511  11.243 -0.4142 -0.1056  0.8624
24202SOL    HW174047   2.283   0.568  11.314  0.9288  0.1850  1.2092
24202SOL    HW274048   2.344   0.432  11.287 -0.3662 -0.2782  0.5224
24203SOL     OW74049   2.434   0.451   2.557 -0.0685 -0.0991  0.6888
24203SOL    HW174050   2.492   0.527   2.555  0.9430 -0.8568  0.2554
24203SOL    HW274051   2.449   0.406   2.474  0.2437 -1.4023  1.4128
24204SOL     OW74052   4.082   7.904   5.272 -0.0658 -0.0481  0.0207
24204SOL    HW174053   4.126   7.825   5.239  1.8242  1.0676 -0.3101
24204SOL    HW274054   4.142   7.939   5.338 -0.9055  1.0568  0.2243
24205SOL     OW74055   4.245   7.800   2.385 -0.3712 -0.4113  0.4247
24205SOL    HW174056   4.297   7.865   2.432  2.2750 -2.0252 -0.0962
24205SOL    HW274057   4.286   7.716   2.405 -2.6866 -1.8060 -0.2122
24206SOL     OW74058   4.490   0.671   5.424  0.0899  0.0065 -0.4160
24206SOL    HW174059   4.585   0.682   5.417 -0.1901  3.0758 -0.7004
24206SOL    HW274060   4.477   0.576   5.422  3.1696 -0.5487  0.2812
24207SOL     OW74061   2.208   7.428   4.876 -0.2924 -0.1606  0.6633
24207SOL    HW174062   2.201   7.523   4.863  1.3193 -0.2993 -1.8166
24207SOL    HW274063   2.284   7.417   4.934 -0.1898  0.0659  0.5738
24208SOL     OW74064   7.219   5.743  12.085 -0.5135 -0.5198  0.6502
24208SOL    HW174065   7.267   5.716  12.007  0.3762 -0.2403  1.0877
24208SOL    HW274066   7.210   5.838  12.076 -1.5826 -0.6428  0.2523
24209SOL     OW74067   7.128   5.770   4.193 -0.4225 -0.3770  0.8812
24209SOL    HW174068   7.082   5.795   4.274 -0.1864  0.1872  0.8392
24209SOL    HW274069   7.085   5.820   4.124 -1.0157 -1.2931  0.5584
24210SOL     OW74070   6.797   0.346   4.779  0.0456  0.1623 -0.0937
24210SOL    HW174071   6.773   0.367   4.689 -1.3814 -1.1836 -0.0709
24210SOL    HW274072   6.878   0.296   4.772 -0.1113 -0.0166 -0.6314
24211SOL     OW74073   1.862   1.944   6.873 -0.1515 -0.0629  0.8891
24211SOL    HW174074   1.810   1.885   6.820 -0.4262 -0.0634  1.1555
24211SOL    HW274075   1.799   1.987   6.931  0.2358 -0.6566  1.7736
24212SOL     OW74076   3.657   0.676   2.044  0.0243 -0.6762 -0.2295
24212SOL    HW174077   3.730   0.729   2.077  0.7175 -0.9408 -1.2914
24212SOL    HW274078   3.582   0.736   2.043  0.6788  0.1667 -0.9409
24213SOL     OW74079   1.322   7.740  11.511  0.4602  0.5246 -0.7747
24213SOL    HW174080   1.261   7.811  11.495  1.4560  1.6201  0.0902
24213SOL    HW274081   1.339   7.744  11.606  1.6327  0.0742 -0.9456
24214SOL     OW74082   6.825   2.126   3.439 -0.7075  0.4479 -0.6933
24214SOL    HW174083   6.781   2.095   3.360 -1.9318 -0.1063  0.1707
24214SOL    HW274084   6.773   2.202   3.468 -0.1925  0.7312 -0.4828
24215SOL     OW74085   3.210   6.523   8.109  0.2377  0.2028 -0.0791
24215SOL    HW174086   3.128   6.506   8.062  0.5362  0.1828 -0.6107
24215SOL    HW274087   3.185   6.528   8.201 -0.4160  0.5701 -0.2718
24216SOL     OW74088   5.306   5.013   5.697 -0.0194  0.4040  0.0765
24216SOL    HW174089   5.359   5.038   5.772 -0.2017  0.3262  0.2307
24216SOL    HW274090   5.228   4.973   5.734 -0.2697  0.6815 -0.1439
24217SOL     OW74091   5.349   4.059   0.290  0.4442  0.0876 -0.1427
24217SOL    HW174092   5.271   4.007   0.310 -0.0266 -0.0378 -2.0952
24217SOL    HW274093   5.316   4.136   0.243  1.3945  0.6716  0.1186
24218SOL     OW74094   6.318   0.604   8.369 -0.0069  0.4861  0.1699
24218SOL    HW174095   6.353   0.562   8.291 -3.0306 -1.5458 -0.2760
24218SOL    HW274096   6.280   0.533   8.420 -0.7254  2.1017  2.0338
24219SOL     OW74097   7.601   7.224  11.447  0.2430 -0.4459  0.2697
24219SOL    HW174098   7.507   7.219  11.429  0.5921 -3.1075 -1.4557
24219SOL    HW274099   7.622   7.317  11.442 -2.2009  0.1615  0.2442
24220SOL     OW74100   2.127   5.816  10.836  0.3707 -0.0433  0.4444
24220SOL    HW174101   2.115   5.864  10.918 -0.5366  1.0401 -0.2987
24220SOL    HW274102   2.220   5.793  10.836  0.4066  0.0377  1.7185
24221SOL     OW74103   3.484   4.253  10.003  0.1251  0.3033  0.0165
24221SOL    HW174104   3.444   4.169  10.023  2.8444 -0.7770  1.4460
24221SOL    HW274105   3.503   4.249   9.909 -0.1631 -0.5197 -0.0104
24222SOL     OW74106   3.833   2.575   1.384  0.0507  0.2283  0.1852
24222SOL    HW174107   3.859   2.523   1.308  1.2455 -0.6092  1.1344
24222SOL    HW274108   3.766   2.522   1.427  1.0686 -0.4261  0.9990
24223SOL     OW74109   5.707   5.714   4.337 -0.4727 -0.0081  0.1807
24223SOL    HW174110   5.708   5.768   4.258  3.1513 -0.0448  0.0425
24223SOL    HW274111   5.720   5.776   4.409 -1.0803 -0.2379  0.4906
24224SOL     OW74112   7.024   1.800   9.313 -0.0818  0.0882  0.3574
24224SOL    HW174113   7.044   1.755   9.231  0.3302 -1.0428  1.0364
24224SOL    HW274114   7.009   1.891   9.289  0.6844 -0.0959 -0.8847
24225SOL     OW74115   3.054   2.262   7.988  0.2772 -0.5141  0.4137
24225SOL    HW174116   3.078   2.210   7.911 -0.4966  0.5360 -0.5714
24225SOL    HW274117   2.997   2.204   8.039 -2.3888  0.0301 -1.7612
24226SOL     OW74118   1.812   5.446   1.679 -0.5557  0.0991 -0.4881
24226SOL    HW174119   1.825   5.523   1.624  1.4883  0.5162  0.4772
24226SOL    HW274120   1.843   5.373   1.625 -0.0989  0.2932 -0.4941
24227SOL     OW74121   4.606   4.769   9.076  0.2921 -0.7668  0.0984
24227SOL    HW174122   4.616   4.864   9.069  0.7617 -0.9098 -2.3890
24227SOL    HW274123   4.526   4.750   9.027 -0.6987 -1.5603  1.9383
24228SOL     OW74124   1.829   5.649   7.758  0.3206 -0.2155 -0.0085
24228SOL    HW174125   1.912   5.602   7.770  0.7234  0.8712  1.7256
24228SOL    HW274126   1.852   5.726   7.706  0.2321 -0.3123 -0.1948
24229SOL     OW74127   7.686   0.360   5.852  0.2624  0.4815 -0.2309
24229SOL    HW174128   7.720   0.270   5.852 -1.6464 -0.2850  0.1307
24229SOL    HW274129   7.617   0.360   5.786 -0.3359  1.4367  0.3688
24230SOL     OW74130   5.286   1.694   9.635 -0.0694  0.1053  0.8018
24230SOL    HW174131   5.238   1.613   9.615 -1.9052  1.1275  0.8496
24230SOL    HW274132   5.355   1.666   9.694  0.5371 -1.7263 -0.6598
24231SOL     OW74133   0.340   0.667   3.292  0.0400  0.3585 -0.1742
24231SOL    HW174134   0.290   0.595   3.255  0.5233  0.6088 -1.3813
24231SOL    HW274135   0.429   0.632   3.302  0.0325  0.4591  0.2566
24232SOL     OW74136   3.825   2.211   3.131  0.1621  0.0564  0.1782
24232SOL    HW174137   3.847   2.125   3.096  0.0907 -0.7727  2.0489
24232SOL    HW274138   3.852   2.207   3.223 -1.4633  1.3980  0.7628
24233SOL     OW74139   6.991   3.488   1.306  0.1699 -0.1805 -0.6598
24233SOL    HW174140   6.922   3.433   1.343 -0.1394  0.6062 -0.0288
24233SOL    HW274141   6.994   3.466   1.213 -2.5936  1.4561 -1.2378
24234SOL     OW74142   7.060   1.633   1.432 -0.4980  0.5426 -0.0074
24234SOL    HW174143   7.127   1.699   1.413 -0.1881 -0.2614 -1.9976
24234SOL    HW274144   6.984   1.659   1.380 -0.1697 -0.9189 -1.2982
24235SOL     OW74145   6.394   7.144   9.766 -0.0611 -0.1384 -0.3589
24235SOL    HW174146   6.306   7.107   9.771 -0.2486  0.0511 -1.7691
24235SOL    HW274147   6.450   7.076   9.804 -0.6952 -0.7113 -0.4246
24236SOL     OW74148   4.072   2.823  10.475 -0.0657  0.1078  0.4172
24236SOL    HW174149   4.132   2.805  10.403  1.7780  0.9798  1.6541
24236SOL    HW274150   4.086   2.751  10.536 -2.8220 -1.5371 -0.7218
24237SOL     OW74151   1.481   0.254   9.286  0.0607  0.5836  0.0631
24237SOL    HW174152   1.575   0.235   9.289  0.3800  2.0088 -0.0074
24237SOL    HW274153   1.470   0.304   9.205 -0.1845  3.0920  1.5366
24238SOL     OW74154   6.397   6.134   9.967  0.0887 -0.3035 -0.2249
24238SOL    HW174155   6.490   6.128   9.989  0.4233 -0.6225 -1.6414
24238SOL    HW274156   6.352   6.124  10.051  1.3587  2.8309  1.0066
24239SOL     OW74157   2.192   3.345   7.077  0.0371 -0.0909  0.7704
24239SOL    HW174158   2.228   3.411   7.137 -0.9645 -0.3509  1.6924
24239SOL    HW274159   2.237   3.264   7.101  0.2876 -0.0123  0.5624
24240SOL     OW74160   2.828   2.995   8.224 -0.3025  0.2526 -0.3967
24240SOL    HW174161   2.856   3.083   8.197 -0.8120  0.5432  0.0031
24240SOL    HW274162   2.807   3.005   8.317  2.4550 -0.9721  0.4684
24241SOL     OW74163   3.444   1.796   2.497  0.2330  0.2630 -0.6926
24241SOL    HW174164   3.501   1.720   2.488 -0.6054 -0.7470  1.6334
24241SOL    HW274165   3.365   1.772   2.449  0.3387  0.0711 -0.7721
24242SOL     OW74166   5.775   1.522   5.624  0.3039 -0.4591 -0.4552
24242SOL    HW174167   5.821   1.438   5.620 -0.2367 -0.7511 -0.5732
24242SOL    HW274168   5.733   1.530   5.538  0.3082 -0.0946 -0.4243
24243SOL     OW74169   2.927   5.612   0.509  0.0515  0.2353 -0.1798
24243SOL    HW174170   3.016   5.603   0.476  0.4757 -0.7341  1.1516
24243SOL    HW274171   2.898   5.523   0.526  0.3832  0.6255  3.2835
24244SOL     OW74172   2.827   0.929   1.302 -0.3258 -0.2808 -0.0797
24244SOL    HW174173   2.917   0.906   1.280 -0.1725  0.8267 -0.6449
24244SOL    HW274174   2.776   0.902   1.225 -0.1780  0.9996 -0.6441
24245SOL     OW74175   1.846   0.549   4.332  0.1267 -0.0148  0.1966
24245SOL    HW174176   1.761   0.578   4.364 -0.2389 -0.6429 -0.1939
24245SOL    HW274177   1.869   0.475   4.388 -1.0736 -1.9173 -1.6640
24246SOL     OW74178   3.970   4.773   6.771  0.3596  0.5437  0.2909
24246SOL    HW174179   3.959   4.802   6.862  0.5864 -1.5367  1.0422
24246SOL    HW274180   4.053   4.812   6.743  0.6937  0.5490  1.2632
24247SOL     OW74181   4.281   6.337   9.773 -0.3837  0.0610 -0.9330
24247SOL    HW174182   4.244   6.412   9.819 -0.3165 -0.3627 -0.1779
24247SOL    HW274183   4.364   6.321   9.818 -0.7204 -0.8909 -0.6400
24248SOL     OW74184   5.554   3.554   2.550 -0.9644  0.4169 -0.0421
24248SOL    HW174185   5.648   3.551   2.569 -0.8926  0.1684 -0.4203
24248SOL    HW274186   5.532   3.647   2.550 -0.2877  0.6337 -1.9422
24249SOL     OW74187   3.709   6.599   5.275 -0.1788 -0.0492  0.0825
24249SOL    HW174188   3.795   6.636   5.252 -0.7531  0.5155 -1.2344
24249SOL    HW274189   3.671   6.664   5.334 -0.6720  0.9140 -1.2460
24250SOL     OW74190   6.062   4.627   9.482 -0.0861  0.5227  0.0588
24250SOL    HW174191   5.991   4.563   9.477 -1.6105  1.9638  1.7204
24250SOL    HW274192   6.127   4.597   9.419 -1.6429 -1.5171 -0.6551
24251SOL     OW74193   4.467   7.661   7.218  0.2445  0.4860 -0.0503
24251SOL    HW174194   4.502   7.670   7.129  0.8793 -0.1180  0.1305
24251SOL    HW274195   4.530   7.707   7.273  1.5519 -1.8016  0.4453
24252SOL     OW74196   0.038   1.856  10.100  0.1452 -0.9316  0.0565
24252SOL    HW174197  -0.023   1.806  10.045 -0.5160  0.9002 -0.9606
24252SOL    HW274198   0.124   1.820  10.079 -0.2977 -1.5681 -0.7378
24253SOL     OW74199   1.725   7.609   5.960  0.4948  0.5598 -0.5207
24253SOL    HW174200   1.676   7.612   6.043  0.8870  0.7113 -0.2905
24253SOL    HW274201   1.736   7.701   5.936 -0.2898  0.4959 -1.1479
24254SOL     OW74202   0.254   1.668  10.377  0.0961  0.4678  0.4829
24254SOL    HW174203   0.286   1.688  10.289  0.8850  0.1294  0.6786
24254SOL    HW274204   0.293   1.582  10.397  1.7354  1.4896  1.9924
24255SOL     OW74205   1.342   6.362   5.443  0.3285 -0.0254  0.4156
24255SOL    HW174206   1.254   6.395   5.462  1.3020  2.3600  1.1822
24255SOL    HW274207   1.332   6.313   5.362 -1.6386  0.5619  0.2474
24256SOL     OW74208   5.581   4.491   0.340 -0.3082 -0.0589 -0.3811
24256SOL    HW174209   5.490   4.494   0.370  0.2425 -1.1125  1.5558
24256SOL    HW274210   5.587   4.407   0.292 -0.5621  0.4603 -1.3567
24257SOL     OW74211   5.630   1.051   9.959  0.0748  0.5673 -0.6713
24257SOL    HW174212   5.605   0.959   9.948  0.5850  0.3378 -0.0387
24257SOL    HW274213   5.710   1.047  10.012 -0.5760  1.4223  0.4310
24258SOL     OW74214   3.448   3.835   7.315 -0.2285 -0.5207  0.0180
24258SOL    HW174215   3.525   3.782   7.295 -1.0809 -1.4335 -1.0029
24258SOL    HW274216   3.419   3.803   7.400 -0.4312 -1.3798 -0.3544
24259SOL     OW74217   5.391   5.660   9.549  0.1835  0.2904 -0.1866
24259SOL    HW174218   5.412   5.578   9.593 -1.5077  0.2904  0.7259
24259SOL    HW274219   5.295   5.665   9.553  0.1026  1.3168 -2.0517
24260SOL     OW74220   0.540   2.897   3.516 -0.3681 -0.7791  0.1627
24260SOL    HW174221   0.536   2.955   3.592  1.0969  0.6602 -0.7852
24260SOL    HW274222   0.629   2.862   3.517 -0.0646 -0.1287 -1.2853
24261SOL     OW74223   7.720   5.656   1.158 -0.3634  0.0345  0.3186
24261SOL    HW174224   7.720   5.717   1.231 -1.2594  1.0683 -0.5221
24261SOL    HW274225   7.754   5.706   1.084  0.8694 -1.0979  0.0691
24262SOL     OW74226   1.290   7.057   2.539  0.0585 -0.1161  0.1301
24262SOL    HW174227   1.304   7.078   2.447 -1.6689 -1.8943 -0.6061
24262SOL    HW274228   1.301   7.140   2.585  1.5406  0.6973 -1.5770
24263SOL     OW74229   1.738   1.432  10.592 -0.2088  0.1112 -0.0370
24263SOL    HW174230   1.792   1.479  10.528  1.2227  1.0998  1.8096
24263SOL    HW274231   1.651   1.432  10.553  0.7936 -0.3543 -2.5076
24264SOL     OW74232   6.615   6.405   2.408  0.1358  0.2388 -0.1744
24264SOL    HW174233   6.626   6.432   2.317  0.0879 -0.6113 -0.4476
24264SOL    HW274234   6.689   6.346   2.423  0.0067  0.1915  0.2612
24265SOL     OW74235   5.956   3.255   6.963  0.5031  0.2949 -0.5488
24265SOL    HW174236   5.878   3.203   6.947 -0.0682  0.9473  0.0476
24265SOL    HW274237   5.932   3.344   6.938  0.7443  0.6665  0.4782
24266SOL     OW74238   7.584   6.012   1.039 -0.5665  0.1969  0.3118
24266SOL    HW174239   7.539   6.056   0.968  1.0068  1.5956  0.1097
24266SOL    HW274240   7.676   6.012   1.013 -0.2777 -1.6395  1.1566
24267SOL     OW74241   4.512   5.527   5.066 -0.1623 -0.0004  0.0445
24267SOL    HW174242   4.449   5.480   5.121 -1.3509  0.7854 -0.5865
24267SOL    HW274243   4.459   5.557   4.991  0.7740  1.4754 -0.0463
24268SOL     OW74244   2.437   4.700   8.652  0.4507 -0.2934 -0.5947
24268SOL    HW174245   2.353   4.663   8.626  1.1354 -1.4929 -1.1538
24268SOL    HW274246   2.434   4.703   8.748  0.1460 -1.2584 -0.5684
24269SOL     OW74247   3.374   4.614  12.152 -0.0649  0.5585  0.3887
24269SOL    HW174248   3.324   4.536  12.174 -1.1583  0.1718 -2.8818
24269SOL    HW274249   3.348   4.678  12.218 -2.9123 -0.4383  0.3859
24270SOL     OW74250   3.868   1.367   5.810 -0.2537 -0.1751  0.1231
24270SOL    HW174251   3.810   1.331   5.877  0.4551 -1.0745  0.2792
24270SOL    HW274252   3.957   1.348   5.843  0.1166 -1.9564 -1.7110
24271SOL     OW74253   5.683   1.471  11.020 -0.0347  0.0339 -0.3032
24271SOL    HW174254   5.660   1.390  11.066  0.4063  0.5470  0.8596
24271SOL    HW274255   5.643   1.541  11.072  0.2753  0.6287 -0.8410
24272SOL     OW74256   1.274   7.842   9.762 -0.2231 -0.1792  0.3749
24272SOL    HW174257   1.224   7.813   9.685 -0.1506  0.8226 -0.0651
24272SOL    HW274258   1.342   7.899   9.726  1.1526 -1.3795  0.9731
24273SOL     OW74259   7.895   5.307   1.889  0.3889  0.2330 -0.1777
24273SOL    HW174260   7.919   5.231   1.942  1.6644  1.8177  1.6282
24273SOL    HW274261   7.869   5.373   1.952 -1.1743  1.1935 -1.7314
24274SOL     OW74262   7.524   0.534   2.961  0.7536  0.2421 -0.5008
24274SOL    HW174263   7.486   0.554   2.875 -1.2866  0.1360  0.3252
24274SOL    HW274264   7.585   0.607   2.977  0.5364  0.7083 -1.6538
24275SOL     OW74265   5.432   1.194   4.439 -0.1685  0.1397  0.3296
24275SOL    HW174266   5.376   1.269   4.420 -0.0440  0.5157  1.3680
24275SOL    HW274267   5.405   1.166   4.527  1.1076  0.1863  0.7550
24276SOL     OW74268   6.141   7.525   9.606 -0.1241  0.4110  0.2085
24276SOL    HW174269   6.130   7.430   9.607  0.0800  0.3854  0.1028
24276SOL    HW274270   6.138   7.551   9.698 -1.8070  0.4925  0.1611
24277SOL     OW74271   4.186   5.860   9.853 -0.2485 -0.0942  0.4317
24277SOL    HW174272   4.097   5.882   9.881 -1.7438 -1.1559 -2.9807
24277SOL    HW274273   4.176   5.780   9.801  2.6972 -0.1401 -0.2432
24278SOL     OW74274   5.316   3.144  12.314 -0.2790  0.3714 -0.4468
24278SOL    HW174275   5.307   3.126  12.221  0.4270 -3.9768  0.1259
24278SOL    HW274276   5.229   3.173  12.341 -0.6401  1.1465 -2.2752
24279SOL     OW74277   6.099   0.292   4.624 -0.3757 -0.0733  0.5254
24279SOL    HW174278   6.067   0.202   4.622 -1.1134  0.1803  0.7728
24279SOL    HW274279   6.112   0.311   4.717  2.9815 -1.0183  0.3857
24280SOL     OW74280   6.084   6.863   2.535  0.2074 -0.1443 -0.1099
24280SOL    HW174281   6.103   6.877   2.628  0.3265 -2.2239  0.2184
24280SOL    HW274282   6.103   6.771   2.520 -0.3652  0.0117 -2.0832
24281SOL     OW74283   5.431   7.708   8.696  0.5949  0.5309 -0.6517
24281SOL    HW174284   5.454   7.768   8.767 -1.6072 -0.6518  1.1971
24281SOL    HW274285   5.512   7.659   8.679  0.8998 -0.0400  2.0070
24282SOL     OW74286   2.350   7.124  11.601 -0.2021  0.0603  0.5565
24282SOL    HW174287   2.381   7.106  11.512  0.1327  2.9354 -0.0086
24282SOL    HW274288   2.429   7.122  11.655 -0.1462  0.0056  0.4730
24283SOL     OW74289   0.906   4.376  10.784 -0.1465 -0.0488 -0.6667
24283SOL    HW174290   0.822   4.334  10.765 -0.8147  1.3484 -0.9068
24283SOL    HW274291   0.888   4.434  10.859  0.9234 -0.6728  0.1149
24284SOL     OW74292   2.723   4.501   9.601 -0.0512 -0.2836  0.0259
24284SOL    HW174293   2.724   4.463   9.689 -0.3868 -1.1127 -0.3182
24284SOL    HW274294   2.648   4.460   9.558 -0.2193  0.5330 -0.4702
24285SOL     OW74295   4.511   1.839  11.995  0.7392  0.2835  0.5807
24285SOL    HW174296   4.534   1.759  11.948 -1.5818  0.2513 -0.6487
24285SOL    HW274297   4.490   1.902  11.926  0.0983  1.1692  1.5588
24286SOL     OW74298   6.681   5.948   8.952 -0.5272  0.9444  0.0207
24286SOL    HW174299   6.645   6.020   8.898 -1.5465  0.2125 -0.3186
24286SOL    HW274300   6.738   5.992   9.015  1.1089  1.8097 -1.9309
24287SOL     OW74301   5.762   2.243   0.559  0.2582  0.0472 -0.4398
24287SOL    HW174302   5.790   2.247   0.467  2.6098  2.2578  0.2409
24287SOL    HW274303   5.793   2.158   0.589 -0.8162 -0.8386 -1.7486
24288SOL     OW74304   1.616   0.750  10.785 -0.0823  0.0836  0.2104
24288SOL    HW174305   1.704   0.768  10.819  0.2696  0.1282 -0.6947
24288SOL    HW274306   1.620   0.661  10.751 -0.7657 -0.3841  1.3286
24289SOL     OW74307   5.503   1.083   6.428  0.1472  0.2690 -0.0239
24289SOL    HW174308   5.576   1.119   6.478  0.1432  1.6771 -0.9791
24289SOL    HW274309   5.427   1.133   6.457  0.0003  0.5056 -0.7815
24290SOL     OW74310   0.809   2.377   9.613 -0.8636  0.2412 -0.3067
24290SOL    HW174311   0.826   2.293   9.570 -1.9389  0.6962 -1.7010
24290SOL    HW274312   0.715   2.391   9.602 -0.5169  2.1937 -1.2081
24291SOL     OW74313   1.982   4.919   2.012 -0.5171  0.3284 -0.0802
24291SOL    HW174314   1.948   4.830   2.004 -2.6108  0.9384  1.0322
24291SOL    HW274315   1.947   4.965   1.936  0.4904  0.2490 -0.6088
24292SOL     OW74316   5.473   0.379  11.102  0.0063 -0.7078 -0.0601
24292SOL    HW174317   5.378   0.369  11.108 -0.1755 -0.6305 -2.3053
24292SOL    HW274318   5.508   0.303  11.149 -1.1665 -1.4232 -0.3211
24293SOL     OW74319   4.526   3.504  11.825  0.4382  0.5727  0.0978
24293SOL    HW174320   4.575   3.523  11.905  1.1971 -1.4885  0.1947
24293SOL    HW274321   4.558   3.417  11.798 -0.9954  0.5031 -1.5272
24294SOL     OW74322   6.245   7.912   3.788  0.2931  0.6405 -0.3918
24294SOL    HW174323   6.164   7.958   3.766 -0.8934 -0.6330  1.0159
24294SOL    HW274324   6.223   7.862   3.867  2.0720 -0.7880 -0.7220
24295SOL     OW74325   3.518   0.348   1.825  0.0880  0.1325  0.2014
24295SOL    HW174326   3.589   0.358   1.762  1.7977  0.6748  2.1209
24295SOL    HW274327   3.440   0.381   1.779  1.6630  2.6231 -0.8821
24296SOL     OW74328   5.584   4.948   9.001 -0.1022 -0.2782  0.2166
24296SOL    HW174329   5.563   4.858   9.026  0.9171 -0.4435  0.5210
24296SOL    HW274330   5.648   4.939   8.931  2.8341  0.1612  2.6634
24297SOL     OW74331   5.717   5.895   2.036  0.4866 -0.2812  0.0669
24297SOL    HW174332   5.647   5.831   2.025  0.3587  0.0102 -0.9282
24297SOL    HW274333   5.671   5.977   2.056  0.4459  0.1430 -1.6023
24298SOL     OW74334   6.937   0.303  11.768 -0.8455 -0.2025  0.0796
24298SOL    HW174335   6.985   0.348  11.698  1.4705 -0.6133  1.3091
24298SOL    HW274336   6.846   0.307  11.741 -0.2097  1.1937 -2.0872
24299SOL     OW74337   4.414   3.726   7.835 -0.7596  0.2633 -0.1006
24299SOL    HW174338   4.445   3.657   7.777  0.0321 -0.0162  0.6298
24299SOL    HW274339   4.360   3.680   7.900  2.9200 -0.4244  2.7957
24300SOL     OW74340   5.059   7.462   4.288  0.1791  0.0920 -0.0132
24300SOL    HW174341   5.105   7.428   4.211  0.2627 -1.1598  0.5760
24300SOL    HW274342   5.053   7.557   4.272  0.7930 -0.0549 -1.2338
24301SOL     OW74343   5.178   3.764   1.200  0.2755 -0.1329  0.0819
24301SOL    HW174344   5.263   3.801   1.226  0.1558 -1.2605  2.2951
24301SOL    HW274345   5.117   3.838   1.205  1.2051  0.9426 -2.5373
24302SOL     OW74346   0.153   5.009   1.603  0.3568 -0.0579  0.3758
24302SOL    HW174347   0.149   4.932   1.546  0.3399 -0.6281  1.1357
24302SOL    HW274348   0.064   5.046   1.600  0.6612  0.6674 -0.9494
24303SOL     OW74349   3.427   1.463   1.694  0.2433  0.2305 -0.1475
24303SOL    HW174350   3.393   1.384   1.652 -0.9934  0.2480  0.7770
24303SOL    HW274351   3.405   1.534   1.634  0.2802  0.0224 -0.4095
24304SOL     OW74352   1.617   3.265   3.474  0.0493  0.0931  0.0586
24304SOL    HW174353   1.633   3.349   3.516 -0.5717 -0.3383  1.1855
24304SOL    HW274354   1.650   3.200   3.536  1.9584 -0.4985 -1.4508
24305SOL     OW74355   6.153   0.844   8.477 -0.1508 -0.2624  0.1473
24305SOL    HW174356   6.078   0.822   8.422  0.3740  0.4695 -0.8912
24305SOL    HW274357   6.215   0.772   8.465 -0.8469 -1.1177  1.3880
24306SOL     OW74358   6.758   2.855  10.770 -0.4186 -0.5413  0.1187
24306SOL    HW174359   6.753   2.762  10.791  1.2180 -0.8385 -0.5902
24306SOL    HW274360   6.704   2.865  10.692  0.0345 -1.0836 -0.2761
24307SOL     OW74361   6.082   1.677  11.370  0.3352  0.3321 -0.6077
24307SOL    HW174362   6.036   1.594  11.358  0.6175 -0.0647  0.9087
24307SOL    HW274363   6.018   1.734  11.413  1.6138 -0.7244  3.0113
24308SOL     OW74364   1.837   0.891   1.007  0.2726 -0.2712 -0.2934
24308SOL    HW174365   1.912   0.834   1.026  0.5410  0.7273  1.8756
24308SOL    HW274366   1.769   0.831   0.978  1.4252 -1.3648 -0.8469
24309SOL     OW74367   0.891   6.909   0.369  0.3357 -0.0746  0.1852
24309SOL    HW174368   0.954   6.946   0.308 -0.0551  1.1936  0.5320
24309SOL    HW274369   0.932   6.919   0.455 -0.5100  1.1662  0.4598
24310SOL     OW74370   2.914   7.643  10.857 -0.2852 -0.2391 -0.2939
24310SOL    HW174371   2.938   7.566  10.908  1.1133  0.5090  0.2399
24310SOL    HW274372   2.934   7.618  10.767  0.6952 -0.3255 -0.0663
24311SOL     OW74373   5.708   0.692   7.435  0.5301  0.1265  0.5735
24311SOL    HW174374   5.765   0.664   7.507  1.0640 -0.6882 -0.1419
24311SOL    HW274375   5.625   0.713   7.477  0.7334 -0.6379  1.3916
24312SOL     OW74376   3.729   5.560   9.118  0.2822 -0.3243 -0.4335
24312SOL    HW174377   3.681   5.608   9.185  0.3548  0.0738 -0.6582
24312SOL    HW274378   3.815   5.543   9.157  0.5684  0.5039 -0.6546
24313SOL     OW74379   7.659   1.231   5.621 -0.6786 -0.0546  0.2600
24313SOL    HW174380   7.708   1.261   5.698  1.0005  1.1494 -1.1829
24313SOL    HW274381   7.632   1.312   5.577 -0.9054 -0.7091 -0.8332
24314SOL     OW74382   0.297   2.145  10.325 -0.1820  0.4906  0.3647
24314SOL    HW174383   0.361   2.129  10.395 -0.7994  1.0592  1.0860
24314SOL    HW274384   0.235   2.072  10.332  0.5485 -0.2291 -0.5377
24315SOL     OW74385   6.148   6.273   1.170 -0.3631  0.4022  0.0797
24315SOL    HW174386   6.084   6.279   1.241 -1.0470 -0.4113 -0.4451
24315SOL    HW274387   6.125   6.193   1.124  0.3252  0.7053 -0.8181
24316SOL     OW74388   4.674   7.773   1.561  0.0315  0.1416  0.4594
24316SOL    HW174389   4.752   7.782   1.505 -0.0651  0.1050  0.3195
24316SOL    HW274390   4.682   7.686   1.600 -0.8006 -0.5576 -0.8654
24317SOL     OW74391   7.857   0.259  11.301 -0.1854  0.0139  0.4531
24317SOL    HW174392   7.948   0.261  11.271 -0.0094 -1.0572  0.8649
24317SOL    HW274393   7.848   0.338  11.355  0.2865  0.5012 -0.1749
24318SOL     OW74394   1.628   4.661   4.941  0.5170 -0.1848 -0.1491
24318SOL    HW174395   1.542   4.651   4.981  0.9404  0.3990  0.9449
24318SOL    HW274396   1.612   4.654   4.847 -0.6467 -0.5783  0.0665
24319SOL     OW74397   7.365   6.226   6.296 -0.2656  0.2990 -0.4908
24319SOL    HW174398   7.278   6.189   6.279 -0.2274 -0.2872  0.5110
24319SOL    HW274399   7.392   6.187   6.379  0.7017  0.9472 -0.4833
24320SOL     OW74400   6.433   5.798   2.156  0.0527 -0.4280 -0.4795
24320SOL    HW174401   6.478   5.769   2.076  1.5859 -2.4941  1.0271
24320SOL    HW274402   6.488   5.868   2.190  0.5325 -0.9182 -0.2189
24321SOL     OW74403   1.260   4.240   6.827 -0.7707  0.2677  0.6236
24321SOL    HW174404   1.196   4.312   6.828  0.5291  1.5045 -0.0694
24321SOL    HW274405   1.294   4.241   6.737  0.3173 -0.2621  1.0196
24322SOL     OW74406   0.134   0.332   8.844 -1.2631 -0.3808 -0.3823
24322SOL    HW174407   0.079   0.397   8.801 -0.8060 -0.0608 -0.4909
24322SOL    HW274408   0.152   0.370   8.930  0.9813  0.7881 -1.2909
24323SOL     OW74409   0.726   6.149  11.051 -0.2239 -0.7990 -0.1165
24323SOL    HW174410   0.816   6.161  11.081 -1.2946  0.8230  2.7768
24323SOL    HW274411   0.679   6.116  11.127 -2.4119 -0.1249 -1.0938
24324SOL     OW74412   7.143   1.490   5.885 -0.1961 -0.0656 -0.3275
24324SOL    HW174413   7.103   1.467   5.969  0.2031 -1.1125 -0.4002
24324SOL    HW274414   7.237   1.476   5.898  0.1364  2.0089 -0.2703
24325SOL     OW74415   6.576   7.570   6.435  0.0077  0.3480 -0.0195
24325SOL    HW174416   6.551   7.648   6.385  0.2422  0.2691 -0.2665
24325SOL    HW274417   6.606   7.603   6.519  2.6748  0.7999 -1.0385
24326SOL     OW74418   1.299   7.336   6.204  0.2054 -0.3240 -0.6256
24326SOL    HW174419   1.282   7.359   6.113 -1.4385 -0.4489 -0.3764
24326SOL    HW274420   1.344   7.412   6.241  0.0123  0.1102 -1.2815
24327SOL     OW74421   6.928   4.177   4.360  0.8574 -0.1981 -0.6440
24327SOL    HW174422   6.996   4.242   4.341  1.2236 -0.3647  0.0497
24327SOL    HW274423   6.947   4.149   4.450 -1.2263  1.0750  0.2597
24328SOL     OW74424   0.655   0.815   5.172 -0.1431  0.2272 -0.1529
24328SOL    HW174425   0.677   0.900   5.135  0.2781  0.3257  0.3156
24328SOL    HW274426   0.625   0.763   5.098 -1.7243  1.2049 -0.2481
24329SOL     OW74427   4.962   1.461   9.042  0.2321 -0.4849 -0.1438
24329SOL    HW174428   5.012   1.436   9.120  0.7432  0.8247 -0.0401
24329SOL    HW274429   5.027   1.497   8.982 -0.5071  0.8633 -0.1773
24330SOL     OW74430   7.215   2.305   4.089  0.2127 -0.4033 -0.4237
24330SOL    HW174431   7.238   2.392   4.057  0.8925  0.1137  1.3636
24330SOL    HW274432   7.207   2.316   4.184 -0.9662 -2.0184 -0.2974
24331SOL     OW74433   5.980   7.750  10.206 -0.3070 -0.6768  0.3848
24331SOL    HW174434   5.963   7.656  10.197  0.4718 -0.6730 -1.5081
24331SOL    HW274435   6.075   7.757  10.214 -0.3528 -0.0388  0.4073
24332SOL     OW74436   1.842   3.528   2.178  0.0053  0.0589 -0.1696
24332SOL    HW174437   1.871   3.438   2.193  3.6943  1.1368  0.1608
24332SOL    HW274438   1.922   3.576   2.159 -1.9739  3.0512 -1.8111
24333SOL     OW74439   6.430   7.922   1.662 -0.3003  0.1546 -0.5572
24333SOL    HW174440   6.513   7.887   1.693  0.1354  0.6846 -1.0925
24333SOL    HW274441   6.412   7.873   1.582 -0.6822 -0.1974 -0.2605
24334SOL     OW74442   0.948   4.932   4.243  0.7105 -0.2369  0.2257
24334SOL    HW174443   0.898   4.856   4.214  1.8394 -0.6885 -0.6428
24334SOL    HW274444   0.994   4.903   4.321 -0.3368  0.1691  1.0066
24335SOL     OW74445   0.944   7.735  11.647 -0.1986  0.1542 -0.2863
24335SOL    HW174446   0.992   7.654  11.631 -0.9388 -0.3960  0.1951
24335SOL    HW274447   0.866   7.707  11.695 -0.6349  1.1162 -0.4206
24336SOL     OW74448   5.262   2.367   2.891 -0.0687  0.2798  0.2752
24336SOL    HW174449   5.217   2.332   2.967  1.5863 -0.6301  0.8899
24336SOL    HW274450   5.351   2.333   2.898  0.2147  0.4424 -1.9059
24337SOL     OW74451   4.629   1.529   9.667  0.3419 -0.1327 -0.2670
24337SOL    HW174452   4.673   1.479   9.598 -0.5158  0.4854 -1.3052
24337SOL    HW274453   4.696   1.589   9.700  1.1213 -1.2928  0.3538
24338SOL     OW74454   2.454   6.686   0.720  0.2434  0.0684 -0.6338
24338SOL    HW174455   2.448   6.715   0.629  0.1382  0.4271 -0.5134
24338SOL    HW274456   2.507   6.606   0.716 -0.3020 -0.2833 -1.0886
24339SOL     OW74457   1.639   5.032   4.068  0.2305  0.1505  0.1529
24339SOL    HW174458   1.613   5.085   4.143  1.3120  1.7686 -0.5607
24339SOL    HW274459   1.699   5.087   4.018  0.5457 -1.3438 -1.2437
24340SOL     OW74460   5.042   0.155  10.627 -0.1591  0.7088  0.2573
24340SOL    HW174461   5.007   0.079  10.673 -0.8867 -0.0385 -1.4457
24340SOL    HW274462   4.973   0.220  10.632 -0.2838  0.5866  0.1192
24341SOL     OW74463   0.014   1.249   7.270  0.1198  0.4936 -0.1589
24341SOL    HW174464   0.062   1.278   7.193 -0.1157 -0.1032 -0.5371
24341SOL    HW274465   0.028   1.318   7.335 -0.3483  1.4042 -0.9961
24342SOL     OW74466   7.578   3.220   5.982  0.0498 -0.5566  0.0712
24342SOL    HW174467   7.530   3.155   5.931  1.3275 -1.8825  0.5005
24342SOL    HW274468   7.629   3.169   6.044  1.4654  0.8316  0.1066
24343SOL     OW74469   2.040   4.883  11.107  0.0347  0.1942 -0.3685
24343SOL    HW174470   2.024   4.913  11.017 -0.0818  0.1822 -0.3515
24343SOL    HW274471   2.108   4.941  11.140  0.8445 -0.4721 -0.8316
24344SOL     OW74472   0.939   0.480  11.250  0.4646  0.3573 -0.2690
24344SOL    HW174473   1.024   0.500  11.211  1.7608 -1.4539  1.4272
24344SOL    HW274474   0.939   0.529  11.332  0.3690 -0.4844  0.2459
24345SOL     OW74475   0.948   2.023  12.393 -0.2037 -0.2865  0.2429
24345SOL    HW174476   0.915   1.945  12.439 -0.8710  0.0625  0.3638
24345SOL    HW274477   0.881   2.090  12.408 -0.6786 -0.2925 -1.6305
24346SOL     OW74478   6.683   0.078  10.774 -0.5422 -0.1920 -0.1208
24346SOL    HW174479   6.656   0.166  10.747 -0.3698 -0.3554 -0.8335
24346SOL    HW274480   6.660   0.022  10.700  0.3669 -0.5711 -0.1305
24347SOL     OW74481   5.297   6.707   4.477  0.0767 -0.2493  0.0009
24347SOL    HW174482   5.389   6.679   4.484 -0.2275 -1.4878 -0.6442
24347SOL    HW274483   5.262   6.657   4.403 -1.6513 -1.3484  1.4602
24348SOL     OW74484   4.702   5.180   4.213  0.3184  0.2639  0.5421
24348SOL    HW174485   4.736   5.091   4.215  0.2565  0.2395  0.5221
24348SOL    HW274486   4.773   5.234   4.247  0.1755  0.1501  1.0207
24349SOL     OW74487   1.884   3.122   9.221  0.0491  0.1950 -0.0291
24349SOL    HW174488   1.962   3.155   9.265 -0.0176 -0.9213  0.9666
24349SOL    HW274489   1.812   3.176   9.254  0.1439  0.0164  0.4726
24350SOL     OW74490   3.332   6.701   1.335 -0.8347  0.5444  0.0290
24350SOL    HW174491   3.260   6.694   1.398 -1.4225 -2.8703 -0.8112
24350SOL    HW274492   3.299   6.658   1.256  1.8305 -0.4698 -0.6446
24351SOL     OW74493   4.220   1.741   3.860 -0.0228 -0.3416 -0.2223
24351SOL    HW174494   4.142   1.685   3.863  0.8219 -1.5906 -0.6190
24351SOL    HW274495   4.264   1.724   3.944  0.8278 -1.1895 -0.8183
24352SOL     OW74496   7.632   2.939   4.862 -0.2321  0.0330  0.1662
24352SOL    HW174497   7.699   2.959   4.797 -0.5713 -1.3826 -0.6508
24352SOL    HW274498   7.596   2.855   4.834 -0.5183 -0.5215  2.0803
24353SOL     OW74499   7.269   0.369   1.851 -0.4699  0.1930 -0.2271
24353SOL    HW174500   7.269   0.320   1.933 -0.8694 -1.0510 -0.9421
24353SOL    HW274501   7.213   0.445   1.868 -3.1213 -1.6547 -0.2485
24354SOL     OW74502   7.182   7.129  11.842  0.0209  0.4874 -0.0393
24354SOL    HW174503   7.102   7.092  11.805 -0.3568  0.5561  0.6884
24354SOL    HW274504   7.156   7.158  11.930  0.2416  2.6279 -0.6169
24355SOL     OW74505   7.720   1.834   3.894 -0.1596 -0.1523 -0.3435
24355SOL    HW174506   7.630   1.866   3.888 -0.3389  0.3103  2.9094
24355SOL    HW274507   7.725   1.762   3.831 -2.9174 -0.4528 -0.3174
24356SOL     OW74508   3.634   6.681   7.642  0.0206  0.3100 -0.4510
24356SOL    HW174509   3.675   6.748   7.587  0.1751 -0.8909 -1.8609
24356SOL    HW274510   3.643   6.715   7.731  0.1142  2.1405 -1.1100
24357SOL     OW74511   0.094   3.847   0.256  0.0050  0.5686 -0.3074
24357SOL    HW174512   0.122   3.837   0.165 -0.9974 -0.3681 -0.5409
24357SOL    HW274513   0.140   3.777   0.303  1.6958  1.9684  0.2322
24358SOL     OW74514   4.317   3.368   0.675 -0.2717 -0.4189  0.3998
24358SOL    HW174515   4.342   3.337   0.588  0.3072  0.4282  0.2472
24358SOL    HW274516   4.291   3.460   0.661  1.8429  0.3952  1.4305
24359SOL     OW74517   6.540   3.363  11.864  0.2698 -0.2756  0.1067
24359SOL    HW174518   6.602   3.293  11.844  0.5026 -0.2455  0.7127
24359SOL    HW274519   6.470   3.321  11.914  0.0448 -0.2107 -0.1459
24360SOL     OW74520   0.839   5.153   6.440 -0.3903  0.5107 -0.0477
24360SOL    HW174521   0.803   5.152   6.351  0.5498 -0.6152 -0.4274
24360SOL    HW274522   0.798   5.078   6.483 -0.5645  0.8386  0.3625
24361SOL     OW74523   5.945   7.950   2.466  0.2871 -0.7382  0.4144
24361SOL    HW174524   5.963   7.989   2.380 -3.2481  0.6145  0.1176
24361SOL    HW274525   5.992   8.006   2.528 -0.0220  0.5091 -0.4322
24362SOL     OW74526   7.922   0.569   5.682 -0.0915 -0.6088  0.2198
24362SOL    HW174527   7.928   0.477   5.656 -2.7637 -1.1482  1.2640
24362SOL    HW274528   7.989   0.579   5.750 -0.3881 -2.0199  0.7477
24363SOL     OW74529   2.739   6.987  11.563 -0.0042  0.4129 -0.0829
24363SOL    HW174530   2.808   6.943  11.613 -0.6706  0.3711  0.8337
24363SOL    HW274531   2.742   6.946  11.476 -0.7933 -1.7107  0.8239
24364SOL     OW74532   0.389   7.280   2.179  0.5948  0.3391  0.0427
24364SOL    HW174533   0.462   7.220   2.164  0.6543  0.4622 -0.1690
24364SOL    HW274534   0.329   7.263   2.106  0.6412  0.5786 -0.0529
24365SOL     OW74535   4.285   0.176   7.294  0.3555  0.0808  0.0969
24365SOL    HW174536   4.196   0.191   7.262  0.7729 -0.0048 -1.1676
24365SOL    HW274537   4.306   0.087   7.267  0.7356  0.0150  0.5989
24366SOL     OW74538   7.239   3.791   7.882  0.0595  0.2910  0.4968
24366SOL    HW174539   7.168   3.730   7.900  0.4815 -0.0558  1.0166
24366SOL    HW274540   7.198   3.864   7.835 -0.1387 -1.2482 -1.8654
24367SOL     OW74541   2.323   7.139   6.965  0.4554 -0.2537  0.9314
24367SOL    HW174542   2.408   7.102   6.989  0.4764  0.0657  1.3503
24367SOL    HW274543   2.329   7.231   6.989 -0.6035 -0.5793  2.5510
24368SOL     OW74544   6.521   4.093   3.390 -0.1690 -0.2044 -0.5380
24368SOL    HW174545   6.427   4.085   3.374 -0.3169  2.1515 -1.3730
24368SOL    HW274546   6.530   4.174   3.441  1.2857 -1.4925  1.3951
24369SOL     OW74547   7.479   2.442   8.278  0.6064 -0.1876 -0.4570
24369SOL    HW174548   7.386   2.455   8.264  0.3248 -0.7742  0.7219
24369SOL    HW274549   7.485   2.397   8.363  1.9350 -0.4456 -0.6540
24370SOL     OW74550   1.028   5.693   1.953 -0.2617  0.0325  0.4913
24370SOL    HW174551   1.023   5.609   1.907 -1.0568  0.1216  0.4007
24370SOL    HW274552   0.948   5.696   2.005 -0.4292  0.9097  0.1907
24371SOL     OW74553   1.257   5.966   2.426  0.0990  0.1280 -0.1519
24371SOL    HW174554   1.273   6.028   2.355  0.9339  0.5823  0.4231
24371SOL    HW274555   1.293   6.008   2.504  1.7714 -1.5651  0.0587
24372SOL     OW74556   7.930   0.522   9.506  0.2902  0.1280 -0.3937
24372SOL    HW174557   7.941   0.602   9.454  0.5561  0.5340  0.2736
24372SOL    HW274558   8.005   0.468   9.482 -0.2940 -0.2421 -1.4094
24373SOL     OW74559   5.522   6.037  11.844 -0.6262  0.6185  0.0855
24373SOL    HW174560   5.536   6.096  11.769  0.0208  0.5623  0.1534
24373SOL    HW274561   5.447   6.075  11.890  0.4619  2.0576  0.7582
24374SOL     OW74562   7.341   1.955   5.836  0.2180  0.2778  0.4936
24374SOL    HW174563   7.269   1.972   5.896 -0.1723  0.3028  0.0332
24374SOL    HW274564   7.394   2.035   5.838 -0.2340  0.5956  0.2135
24375SOL     OW74565   2.997   3.589  12.049  0.2868 -0.0871 -0.0522
24375SOL    HW174566   2.976   3.509  12.000  1.5372 -0.6046  0.2279
24375SOL    HW274567   2.923   3.647  12.031 -0.9228 -1.4789  0.1489
24376SOL     OW74568   4.713   7.018   5.659 -0.1705  0.2705 -0.4338
24376SOL    HW174569   4.689   7.110   5.675 -1.0914 -0.1503  0.7484
24376SOL    HW274570   4.654   6.990   5.589  1.5766  1.1515 -2.3819
24377SOL     OW74571   4.784   2.635   3.825 -0.3713 -0.0372  0.0966
24377SOL    HW174572   4.872   2.644   3.789 -0.2590 -1.5561 -0.0876
24377SOL    HW274573   4.743   2.720   3.811  0.2331 -0.0521 -2.1126
24378SOL     OW74574   2.918   1.667   3.765 -0.1912  0.3633 -0.2279
24378SOL    HW174575   2.870   1.585   3.772  0.0975  0.1875 -0.2805
24378SOL    HW274576   2.928   1.696   3.856 -1.3670  0.9792 -0.2775
24379SOL     OW74577   6.772   6.103   9.641  0.1016 -0.2045  0.1172
24379SOL    HW174578   6.716   6.097   9.718  2.2990 -1.0478  1.7250
24379SOL    HW274579   6.758   6.020   9.595 -0.8210  0.0893 -0.1709
24380SOL     OW74580   1.202   6.688  11.283 -0.5288  0.2909  0.0062
24380SOL    HW174581   1.205   6.706  11.377 -0.1551  0.9934 -0.1322
24380SOL    HW274582   1.243   6.765  11.243 -0.7599  0.0333 -0.7354
24381SOL     OW74583   3.153   6.523   2.755 -0.0826 -0.7051 -0.4498
24381SOL    HW174584   3.225   6.574   2.793  0.1724  0.9578 -2.9298
24381SOL    HW274585   3.194   6.474   2.684 -1.3189 -0.0252 -1.6600
24382SOL     OW74586   4.923   6.126   5.729 -0.4622  0.1537  0.3604
24382SOL    HW174587   4.970   6.045   5.711  0.5719  0.7661  0.2523
24382SOL    HW274588   4.946   6.185   5.657 -0.9453  0.6562  0.6049
24383SOL     OW74589   1.025   2.012   7.279  0.0088 -0.2852 -0.0932
24383SOL    HW174590   1.091   2.051   7.336  1.3001  0.6435 -2.0889
24383SOL    HW274591   0.969   2.086   7.254  0.3486 -0.3511 -1.1239
24384SOL     OW74592   0.117   4.284   7.715  0.4039 -0.1024 -0.1709
24384SOL    HW174593   0.202   4.278   7.672 -0.7860 -0.2473 -2.6754
24384SOL    HW274594   0.062   4.221   7.669 -1.7639  1.8307 -0.4271
24385SOL     OW74595   0.780   6.723   4.890 -0.2234 -0.2831  0.0771
24385SOL    HW174596   0.799   6.634   4.862  0.5555 -0.0747 -0.0953
24385SOL    HW274597   0.843   6.777   4.842  0.4463  0.1884  1.4249
24386SOL     OW74598   5.568   4.082   3.833  0.8010 -0.2511 -0.2239
24386SOL    HW174599   5.530   4.119   3.913 -0.3063 -0.3222 -0.6971
24386SOL    HW274600   5.496   4.085   3.769  1.4236 -0.9627 -0.9716
24387SOL     OW74601   3.284   5.722   0.702  0.0081  0.3057  0.2389
24387SOL    HW174602   3.237   5.805   0.712 -1.7458 -0.4222 -1.2670
24387SOL    HW274603   3.376   5.746   0.707 -0.4560  1.9291  2.5555
24388SOL     OW74604   6.428   6.905  12.300 -0.0263  0.5062  0.2085
24388SOL    HW174605   6.338   6.886  12.272 -0.6987  1.1771  1.8036
24388SOL    HW274606   6.441   6.849  12.377  0.3423  1.5545  0.9300
24389SOL     OW74607   4.587   5.753   9.792  0.4893  0.3015 -0.2776
24389SOL    HW174608   4.659   5.770   9.731  0.2076  0.0833 -0.6696
24389SOL    HW274609   4.537   5.834   9.792 -0.9334 -0.5123 -2.2566
24390SOL     OW74610   2.396   4.070  11.552  0.0163  0.4958 -0.1437
24390SOL    HW174611   2.432   4.133  11.616 -2.8715  1.7259  0.4488
24390SOL    HW274612   2.372   3.994  11.605 -0.2255  0.5464 -0.1836
24391SOL     OW74613   2.739   2.233   2.099 -0.0926 -0.0245 -0.1284
24391SOL    HW174614   2.803   2.227   2.171 -2.0266  1.0015  1.8093
24391SOL    HW274615   2.736   2.326   2.078 -2.2265  0.2851  1.1769
24392SOL     OW74616   2.478   5.199  12.274 -0.3536 -0.4946 -0.0287
24392SOL    HW174617   2.393   5.244  12.277 -0.4428 -0.6492 -0.1913
24392SOL    HW274618   2.532   5.254  12.217 -0.1009  0.0087  0.6825
24393SOL     OW74619   6.255   7.948   5.482 -0.2468  0.3570  0.1248
24393SOL    HW174620   6.215   7.968   5.567  0.1605  0.0574  0.3926
24393SOL    HW274621   6.349   7.956   5.498 -0.0448 -1.8016  0.2664
24394SOL     OW74622   1.246   2.963   9.395  0.3614  0.3974 -0.0645
24394SOL    HW174623   1.202   3.048   9.385  0.0600  0.4292  1.2933
24394SOL    HW274624   1.338   2.986   9.406  0.1865  0.6408  1.0925
24395SOL     OW74625   1.223   7.555   3.281 -0.4401 -0.4440 -0.2548
24395SOL    HW174626   1.318   7.549   3.271 -0.3414 -2.2300  1.0394
24395SOL    HW274627   1.209   7.632   3.336  0.3887 -0.8237  0.5190
24396SOL     OW74628   6.299   1.418  11.534 -0.2592 -0.2535 -0.2219
24396SOL    HW174629   6.282   1.492  11.593  2.1880 -0.3393  0.7168
24396SOL    HW274630   6.395   1.412  11.530 -0.3502 -3.3316 -0.2959
24397SOL     OW74631   1.094   7.257   1.125 -0.0321 -0.0991 -0.3236
24397SOL    HW174632   1.127   7.347   1.135 -0.6567  0.3507 -1.9539
24397SOL    HW274633   1.022   7.251   1.187 -0.0525  0.5653 -0.2704
24398SOL     OW74634   3.949   3.375  11.105 -0.0693  0.1550  0.2919
24398SOL    HW174635   3.996   3.445  11.061 -0.9426  0.0872 -0.7997
24398SOL    HW274636   4.000   3.357  11.183 -0.3800  2.7275  1.1841
24399SOL     OW74637   3.830   0.995   8.330 -0.3858 -0.0670  0.0913
24399SOL    HW174638   3.745   0.970   8.366 -0.8993  0.3338 -0.8200
24399SOL    HW274639   3.848   0.928   8.264  1.3364 -1.7875  2.1397
24400SOL     OW74640   1.624   7.398   0.969  0.5527  0.4945 -0.2966
24400SOL    HW174641   1.565   7.449   1.025  0.4120 -1.5401  1.5262
24400SOL    HW274642   1.625   7.311   1.007  2.6938 -0.2672 -1.8601
24401SOL     OW74643   4.809   2.718   9.219 -0.7581  0.1794  0.4498
24401SOL    HW174644   4.752   2.756   9.152 -0.3456  1.2232  0.6753
24401SOL    HW274645   4.850   2.793   9.261  0.5888 -0.5445  0.4761
24402SOL     OW74646   1.138   3.940  11.043  0.2535  0.0231  0.2622
24402SOL    HW174647   1.156   3.973  11.131 -0.1340  0.2490  0.2562
24402SOL    HW274648   1.097   4.013  10.997 -0.8196 -0.5209  0.3185
24403SOL     OW74649   2.287   3.049   3.192 -0.5052  0.4860  0.1864
24403SOL    HW174650   2.215   3.012   3.244 -0.7477  0.2442 -0.3196
24403SOL    HW274651   2.342   2.975   3.170  0.9819  0.9118  2.1936
24404SOL     OW74652   5.247   3.528  10.789  0.3560  0.4526 -0.7355
24404SOL    HW174653   5.267   3.523  10.695 -3.2012 -0.4776 -1.5715
24404SOL    HW274654   5.198   3.610  10.798  1.1811  0.8433  0.4920
24405SOL     OW74655   2.203   2.934   5.258 -0.1932  0.3548 -0.0427
24405SOL    HW174656   2.242   2.937   5.170  0.3262 -1.0556  0.1204
24405SOL    HW274657   2.278   2.928   5.317 -0.5566 -2.6420  0.2612
24406SOL     OW74658   7.462   1.003   4.980  0.6589  0.2582 -0.4089
24406SOL    HW174659   7.468   1.089   5.022  0.6675  0.7360 -1.3603
24406SOL    HW274660   7.515   0.946   5.035  1.9611  1.2131 -0.6066
24407SOL     OW74661   2.644   6.402   7.189 -0.2638  0.0706  0.6585
24407SOL    HW174662   2.611   6.426   7.275 -3.4968  3.1324 -1.1897
24407SOL    HW274663   2.589   6.328   7.162 -0.0198 -0.1410  0.7279
24408SOL     OW74664   3.071   7.739   0.724 -0.8938 -0.7906 -0.3357
24408SOL    HW174665   2.989   7.779   0.751 -0.8770 -0.6232 -0.5297
24408SOL    HW274666   3.133   7.760   0.794 -0.6707  0.2268 -0.8123
24409SOL     OW74667   4.922   2.510  10.005  0.0798  0.7542  0.5763
24409SOL    HW174668   4.925   2.461   9.923 -0.8441 -0.4093  1.1924
24409SOL    HW274669   4.938   2.601   9.980 -0.2433  0.4304 -0.9021
24410SOL     OW74670   2.214   7.458   5.175 -0.6651 -0.4203 -0.1051
24410SOL    HW174671   2.302   7.429   5.150 -0.3537  1.8160 -2.0134
24410SOL    HW274672   2.178   7.386   5.226  2.1990 -1.4942  0.6118
24411SOL     OW74673   1.110   4.586  11.067 -0.2423  0.5117  0.0988
24411SOL    HW174674   1.015   4.583  11.056 -0.0965  0.2138 -1.3110
24411SOL    HW274675   1.139   4.496  11.049  0.3650  0.7516 -0.1553
24412SOL     OW74676   1.698   4.943   9.707  0.2736 -0.2971  0.0465
24412SOL    HW174677   1.722   4.928   9.798 -1.9072  2.5589  1.2300
24412SOL    HW274678   1.640   4.870   9.685  2.6405 -2.3164  0.0328
24413SOL     OW74679   0.169   5.535   7.304 -0.0872  0.1286  0.1719
24413SOL    HW174680   0.190   5.451   7.263  0.5740  0.7587 -0.8624
24413SOL    HW274681   0.246   5.590   7.285 -0.6957  1.0930  0.4252
24414SOL     OW74682   0.753   5.008   1.349  0.5900  0.2588  0.5195
24414SOL    HW174683   0.764   4.983   1.257  1.1376  2.4892 -0.0894
24414SOL    HW274684   0.684   4.951   1.382 -0.1054 -0.1233 -1.4745
24415SOL     OW74685   0.126   4.936   9.961  0.1404  0.1824  0.1539
24415SOL    HW174686   0.191   4.901   9.900 -1.2678 -0.6731 -0.9328
24415SOL    HW274687   0.095   5.017   9.919 -0.6633 -0.2850 -0.1789
24416SOL     OW74688   6.614   0.472   2.069 -0.1661 -0.4664  0.2653
24416SOL    HW174689   6.598   0.418   1.992  0.9197  0.5730 -0.7276
24416SOL    HW274690   6.709   0.469   2.082  0.1973  2.4151 -0.8344
24417SOL     OW74691   4.743   2.438   1.275 -0.0020 -0.1590  0.0822
24417SOL    HW174692   4.661   2.438   1.324 -0.3130 -1.6503 -0.3765
24417SOL    HW274693   4.720   2.480   1.192 -0.6819 -1.6999 -0.5593
24418SOL     OW74694   0.104   5.881   6.454  0.3736 -0.6824 -0.5224
24418SOL    HW174695   0.074   5.920   6.372 -0.1197 -2.0503 -1.0135
24418SOL    HW274696   0.026   5.876   6.509  0.4692 -0.8108 -0.3963
24419SOL     OW74697   3.415   5.505   0.458 -0.6583 -0.0451 -0.0875
24419SOL    HW174698   3.372   5.515   0.543 -0.8134  1.1865 -0.3021
24419SOL    HW274699   3.454   5.590   0.441 -0.5159 -0.3260 -1.1962
24420SOL     OW74700   1.333   5.582   2.873  0.1524  0.0667  0.1814
24420SOL    HW174701   1.243   5.615   2.883 -0.8840 -1.5293 -2.6650
24420SOL    HW274702   1.360   5.613   2.787  1.5023 -1.2537  0.1004
24421SOL     OW74703   7.584   4.516   8.380 -0.7212  0.0747 -0.1952
24421SOL    HW174704   7.544   4.476   8.457  0.4900 -0.9017 -0.0386
24421SOL    HW274705   7.626   4.595   8.412 -0.0885 -0.4106  0.1924
24422SOL     OW74706   0.030   4.658   8.056 -0.0857  0.7773 -0.7617
24422SOL    HW174707   0.097   4.699   8.001 -0.1026  0.0527 -1.3307
24422SOL    HW274708  -0.009   4.731   8.105 -0.0605  1.4281 -1.7003
24423SOL     OW74709   4.271   6.688  11.127  0.4164  0.2982  0.4144
24423SOL    HW174710   4.289   6.779  11.150 -1.1287  0.7316  0.0800
24423SOL    HW274711   4.234   6.649  11.206 -0.3432  0.4114  0.1281
24424SOL     OW74712   3.770   6.438   7.862 -0.0793  0.5032  0.1756
24424SOL    HW174713   3.752   6.349   7.834 -2.0255  1.2140 -0.9813
24424SOL    HW274714   3.816   6.479   7.789  0.8546  0.4735  0.7205
24425SOL     OW74715   5.807   4.135   2.374  0.3341 -0.1984 -0.6792
24425SOL    HW174716   5.820   4.075   2.448  2.0729  0.3710 -0.4812
24425SOL    HW274717   5.713   4.129   2.354 -0.2483 -0.1160  1.7765
24426SOL     OW74718   5.029   5.456   3.354  0.1201  0.1221 -0.3990
24426SOL    HW174719   4.950   5.452   3.408 -1.3237  1.0371 -2.3257
24426SOL    HW274720   5.018   5.385   3.290  1.0082  0.0827 -0.5226
24427SOL     OW74721   6.730   6.121   1.069 -0.2509 -0.1965 -0.3356
24427SOL    HW174722   6.682   6.155   1.145 -0.9045 -2.6348  0.4196
24427SOL    HW274723   6.757   6.200   1.021 -1.9011  1.3546  1.1210
24428SOL     OW74724   7.762   5.339   0.313 -0.1976 -0.1534 -0.0916
24428SOL    HW174725   7.735   5.320   0.403  0.0233  0.4979  0.1238
24428SOL    HW274726   7.780   5.433   0.314 -0.5951 -0.0646 -0.9256
24429SOL     OW74727   4.818   1.698   0.205  0.2490  0.1780 -0.2584
24429SOL    HW174728   4.773   1.781   0.186  1.3130  0.7650 -0.3043
24429SOL    HW274729   4.856   1.672   0.121 -1.7558 -1.4547 -0.7490
24430SOL     OW74730   7.756   5.523   8.967 -0.1044  0.1247  0.4106
24430SOL    HW174731   7.814   5.449   8.951 -0.5310 -0.1231 -0.0278
24430SOL    HW274732   7.813   5.591   9.002  0.8352  0.5565 -1.7612
24431SOL     OW74733   6.905   0.901   2.002  0.4424 -0.9149  0.6694
24431SOL    HW174734   6.812   0.913   2.018 -0.0481 -2.2691 -0.8891
24431SOL    HW274735   6.928   0.822   2.053  0.3074 -1.5943 -0.2934
24432SOL     OW74736   6.163   5.028   4.432  0.3921 -0.0470  0.2869
24432SOL    HW174737   6.111   5.109   4.428 -0.7339 -0.6867  1.1954
24432SOL    HW274738   6.104   4.961   4.397  0.9117 -0.6462  0.5444
24433SOL     OW74739   3.065   5.806   5.658  0.1701  0.4119  0.3820
24433SOL    HW174740   3.023   5.859   5.591  0.8734  0.4654 -0.0362
24433SOL    HW274741   3.081   5.722   5.615  0.1999  0.2861  0.6362
24434SOL     OW74742   5.711   1.601   3.086 -0.0926 -0.1082  0.2655
24434SOL    HW174743   5.803   1.607   3.060 -0.7832  0.0021 -2.4541
24434SOL    HW274744   5.705   1.517   3.131  1.2391 -0.3732  0.0030
24435SOL     OW74745   2.158   4.023   1.601  0.7665 -0.7386 -0.2653
24435SOL    HW174746   2.219   3.987   1.666  0.2045 -1.7768 -0.2908
24435SOL    HW274747   2.165   3.963   1.527  1.8462  0.7572 -1.4480
24436SOL     OW74748   1.532   5.011   1.551 -0.7125 -0.2397 -0.2058
24436SOL    HW174749   1.458   5.026   1.611  0.0638 -1.3876  1.1116
24436SOL    HW274750   1.594   4.959   1.603  0.5901 -0.1405 -1.6027
24437SOL     OW74751   7.402   0.575   5.758 -0.4784 -0.2878 -0.3400
24437SOL    HW174752   7.339   0.518   5.712  0.2325 -0.3553 -1.2749
24437SOL    HW274753   7.438   0.631   5.689  1.3800 -1.0861 -0.0867
24438SOL     OW74754   1.386   7.065   8.191 -0.4424 -0.0642  0.0589
24438SOL    HW174755   1.307   7.120   8.198 -1.0543 -0.7198 -1.2605
24438SOL    HW274756   1.435   7.103   8.118  1.4695  1.4788  2.0079
24439SOL     OW74757   6.343   2.803   4.750  0.1742 -0.0728  0.0810
24439SOL    HW174758   6.309   2.892   4.753 -0.2430 -0.2140 -0.3928
24439SOL    HW274759   6.402   2.802   4.674 -0.5835 -0.4615 -0.5126
24440SOL     OW74760   2.725   4.071   7.840  0.4641  0.2147 -0.3653
24440SOL    HW174761   2.751   4.024   7.761 -1.0725 -2.1002  0.4238
24440SOL    HW274762   2.656   4.130   7.810  0.6284  0.1374 -0.9243
24441SOL     OW74763   0.476   7.595   3.709 -0.5322 -0.5158 -0.0570
24441SOL    HW174764   0.411   7.653   3.670  1.1547  1.4637 -0.1118
24441SOL    HW274765   0.502   7.639   3.790  1.0257 -1.0150 -0.2469
24442SOL     OW74766   4.403   1.033  12.283 -0.4324 -0.3814 -0.4507
24442SOL    HW174767   4.317   0.990  12.284 -1.2254  1.1218 -0.4912
24442SOL    HW274768   4.444   1.003  12.202 -1.3838 -0.2563 -0.9917
24443SOL     OW74769   2.982   4.154  12.214  0.1316 -0.4229 -0.5426
24443SOL    HW174770   3.005   4.133  12.304 -1.0542 -2.3584 -0.6214
24443SOL    HW274771   2.908   4.096  12.194 -0.8250  1.2439 -2.1842
24444SOL     OW74772   5.823   6.943   7.322  0.5107 -0.7175  0.2112
24444SOL    HW174773   5.906   6.895   7.321  0.0475 -1.5311 -0.3180
24444SOL    HW274774   5.841   7.020   7.376  1.3818 -1.2826  0.7599
24445SOL     OW74775   3.022   5.999   8.897 -0.0387 -0.3881 -0.2040
24445SOL    HW174776   3.031   6.070   8.960 -0.2354 -0.7609  0.2438
24445SOL    HW274777   3.105   5.999   8.849 -0.3473  0.6696 -0.7615
24446SOL     OW74778   7.362   4.843   1.758 -0.1610  0.5433 -0.0719
24446SOL    HW174779   7.385   4.934   1.777 -2.9498  1.5259 -0.9758
24446SOL    HW274780   7.311   4.847   1.677  0.4732 -1.9839 -0.7094
24447SOL     OW74781   4.863   7.720   2.855  0.0413  0.4417  0.2841
24447SOL    HW174782   4.883   7.712   2.949  0.2911 -0.4585  0.1641
24447SOL    HW274783   4.862   7.630   2.823  2.7167  0.8041 -1.1340
24448SOL     OW74784   4.564   4.984  11.073  0.4064  0.3198 -0.4664
24448SOL    HW174785   4.556   5.011  11.164  0.6312  0.9052 -0.6151
24448SOL    HW274786   4.652   4.948  11.065 -0.4101 -2.0175  0.1136
24449SOL     OW74787   0.193   7.839   1.070 -0.1487 -0.3311  0.3892
24449SOL    HW174788   0.135   7.779   1.024  0.2524 -1.0320  0.7812
24449SOL    HW274789   0.156   7.846   1.157  0.9478 -1.6741  1.0029
24450SOL     OW74790   0.568   1.613   2.937  0.8181  0.0256  0.0823
24450SOL    HW174791   0.595   1.703   2.922  0.9547  0.0915  0.6655
24450SOL    HW274792   0.619   1.561   2.876  0.6729  0.3509 -0.3167
24451SOL     OW74793   4.974   1.165   9.946  0.2504 -0.2498  0.2548
24451SOL    HW174794   4.926   1.243   9.918  0.2452 -0.0577  0.7698
24451SOL    HW274795   4.987   1.114   9.867 -0.5893 -0.1849  0.0748
24452SOL     OW74796   3.270   6.879  10.340 -0.6932  0.0737  0.3432
24452SOL    HW174797   3.342   6.829  10.380 -0.7483 -0.8935 -0.7169
24452SOL    HW274798   3.297   6.970  10.348  0.5079 -0.2534  0.2411
24453SOL     OW74799   2.576   3.260   2.968  0.1493  0.2248  0.2859
24453SOL    HW174800   2.605   3.253   3.059  0.0883  0.6338  0.3403
24453SOL    HW274801   2.548   3.172   2.945  0.8797 -0.0445  0.4184
24454SOL     OW74802   1.210   5.441  12.180  0.3007 -0.0693  0.9955
24454SOL    HW174803   1.203   5.346  12.185  0.4799 -0.1137  0.3840
24454SOL    HW274804   1.231   5.460  12.089 -1.9677  0.6935  0.5604
24455SOL     OW74805   2.444   2.863   0.568 -0.1680 -0.5781 -0.1700
24455SOL    HW174806   2.437   2.891   0.659  1.8468  2.1140 -0.7200
24455SOL    HW274807   2.538   2.851   0.553 -0.2320  0.9374 -2.3242
24456SOL     OW74808   1.088   5.304   7.733  0.3657  0.0245  0.2124
24456SOL    HW174809   0.993   5.289   7.738 -0.0466  2.4261  1.8445
24456SOL    HW274810   1.120   5.281   7.820  1.4014 -1.2398 -0.4816
24457SOL     OW74811   1.132   2.524   3.130  0.0546  0.0340 -0.0131
24457SOL    HW174812   1.051   2.562   3.097  1.0152  1.2478 -1.0972
24457SOL    HW274813   1.140   2.440   3.084 -1.2789 -0.8115  1.2004
24458SOL     OW74814   6.948   2.288  11.748  0.3594  0.1133 -0.3774
24458SOL    HW174815   6.914   2.218  11.804  0.6438 -0.5006 -0.9555
24458SOL    HW274816   6.980   2.243  11.671 -0.8504  1.0045 -1.4571
24459SOL     OW74817   1.012   4.552   3.292 -0.3611 -0.3867  0.2699
24459SOL    HW174818   1.024   4.631   3.239  0.9842 -1.5246 -1.2099
24459SOL    HW274819   1.088   4.552   3.351 -0.9521 -0.0217  1.0522
24460SOL     OW74820   7.045   4.809   2.697  0.3245  0.4458  0.1601
24460SOL    HW174821   7.140   4.800   2.691  0.2109 -0.5596 -0.4234
24460SOL    HW274822   7.013   4.791   2.609 -0.4667 -0.2529  0.5703
24461SOL     OW74823   3.422   5.624   7.928  0.2339  0.9173  0.2578
24461SOL    HW174824   3.336   5.644   7.891  0.6435  0.4539 -0.9651
24461SOL    HW274825   3.451   5.707   7.966 -0.2664  1.3676 -0.3222
24462SOL     OW74826   4.082   5.251   1.504  0.8574  0.5732 -0.2276
24462SOL    HW174827   3.989   5.256   1.527  0.7408  0.5720 -0.6883
24462SOL    HW274828   4.118   5.185   1.564  0.6346  0.8202  0.1787
24463SOL     OW74829   0.589   0.569   5.035  0.4508 -0.5667  0.4729
24463SOL    HW174830   0.645   0.524   5.098  1.5510 -0.7593 -0.6179
24463SOL    HW274831   0.510   0.514   5.031  0.7211 -1.0127  1.0354
24464SOL     OW74832   4.732   4.671   5.584  0.9574 -0.5560 -0.1951
24464SOL    HW174833   4.763   4.738   5.644  1.7483 -1.1845  0.1082
24464SOL    HW274834   4.681   4.720   5.519  0.0874  0.1315  0.9620
24465SOL     OW74835   4.947   1.725   6.009  0.0700 -0.3766 -0.2151
24465SOL    HW174836   4.899   1.786   5.953  0.5246 -0.8782 -1.1703
24465SOL    HW274837   4.975   1.778   6.083  0.6575  0.6506 -1.1334
24466SOL     OW74838   3.648   5.591  10.447 -0.1225  0.1526  0.5854
24466SOL    HW174839   3.603   5.622  10.368  0.0862  0.9532  0.7721
24466SOL    HW274840   3.585   5.532  10.488  0.5177 -1.9019 -1.2120
24467SOL     OW74841   2.720   1.566  10.565  0.2940  0.2601 -0.5178
24467SOL    HW174842   2.666   1.487  10.566 -0.3939  0.7263  0.1707
24467SOL    HW274843   2.665   1.633  10.606  1.7183  0.5276  1.0937
24468SOL     OW74844   2.024   4.193   1.331  0.6614  0.6093  0.5615
24468SOL    HW174845   1.929   4.191   1.329  0.6289  1.9968 -0.5962
24468SOL    HW274846   2.051   4.131   1.262  0.5964  0.5480  0.5912
24469SOL     OW74847   5.870   2.468   2.741 -0.4701  0.1249 -0.4213
24469SOL    HW174848   5.810   2.397   2.765 -1.9541  0.5434 -2.6417
24469SOL    HW274849   5.833   2.546   2.781 -0.6935  0.1769 -0.7285
24470SOL     OW74850   0.260   7.384   3.880  0.7370  0.8454  0.2435
24470SOL    HW174851   0.281   7.397   3.973 -1.7424  2.1113  0.6992
24470SOL    HW274852   0.220   7.297   3.878  0.0645  1.1357  0.5382
24471SOL     OW74853   0.995   3.957  11.646 -0.3635  0.0053  0.5906
24471SOL    HW174854   0.991   3.861  11.641  2.0499 -0.1533  0.3380
24471SOL    HW274855   0.999   3.977  11.739 -1.4760 -0.0911  0.6632
24472SOL     OW74856   5.740   1.930   7.994  0.4679  0.0683  0.2587
24472SOL    HW174857   5.788   1.847   7.987  0.4352  0.0712  0.0012
24472SOL    HW274858   5.793   1.993   7.945  0.1469  0.0467 -0.1211
24473SOL     OW74859   3.379   2.875   2.218 -0.4699  0.3345 -0.2471
24473SOL    HW174860   3.344   2.960   2.244 -0.4559 -0.1294  1.3984
24473SOL    HW274861   3.327   2.811   2.267 -0.9499 -0.6789 -1.9769
24474SOL     OW74862   6.288   7.595   9.411 -0.1249  0.0963 -0.2560
24474SOL    HW174863   6.351   7.523   9.412 -0.4896 -0.2423 -0.6180
24474SOL    HW274864   6.231   7.578   9.486 -0.7340 -0.4843 -0.8382
24475SOL     OW74865   1.950   6.356   5.748 -0.1577 -0.8072  0.1391
24475SOL    HW174866   2.017   6.354   5.817  0.7692 -0.1483 -0.6975
24475SOL    HW274867   1.949   6.448   5.719  0.8077 -1.3899 -1.9494
24476SOL     OW74868   6.885   1.254   1.588  0.3324  0.1369 -0.2049
24476SOL    HW174869   6.913   1.178   1.536 -1.1093  0.4402 -1.5300
24476SOL    HW274870   6.858   1.319   1.522  2.2042  2.1102  0.8751
24477SOL     OW74871   7.333   0.838   9.795  0.1328  0.0040  0.0673
24477SOL    HW174872   7.412   0.812   9.747  0.4621 -0.7629  0.9907
24477SOL    HW274873   7.262   0.788   9.755  0.3402 -0.3184  0.1001
24478SOL     OW74874   4.345   2.870   5.419 -0.0674 -0.0056  0.5253
24478SOL    HW174875   4.367   2.783   5.453 -0.9334  0.5002  2.5199
24478SOL    HW274876   4.381   2.931   5.483 -0.1062  1.0983 -0.4749
24479SOL     OW74877   0.433   1.180   4.781 -0.0178  0.3013 -0.8068
24479SOL    HW174878   0.352   1.192   4.831  2.1150  0.3323  3.0432
24479SOL    HW274879   0.498   1.233   4.827  3.1098 -2.8277 -1.1672
24480SOL     OW74880   5.290   6.199   9.073  0.1466 -0.6624  0.9411
24480SOL    HW174881   5.372   6.155   9.092 -0.9558 -4.0025 -1.0274
24480SOL    HW274882   5.230   6.128   9.048 -2.2468  1.8846 -1.3241
24481SOL     OW74883   2.393   0.781   6.157  0.0210  0.0857  0.4250
24481SOL    HW174884   2.402   0.827   6.240  1.1484  0.7611 -0.0518
24481SOL    HW274885   2.345   0.842   6.101  1.3030  0.6244 -0.1307
24482SOL     OW74886   7.495   7.920   4.055 -0.0974 -0.4405  0.2128
24482SOL    HW174887   7.564   7.883   4.110 -0.0199 -0.6621 -0.0243
24482SOL    HW274888   7.500   7.868   3.974  0.0674  0.1533 -0.1609
24483SOL     OW74889   1.473   6.504   6.175 -0.8401  0.0338 -0.3592
24483SOL    HW174890   1.526   6.583   6.161  2.4050 -2.3639 -3.2109
24483SOL    HW274891   1.399   6.514   6.115  0.0275  0.5573 -1.3731
24484SOL     OW74892   7.390   5.028  10.235 -0.1334 -0.4411 -0.2421
24484SOL    HW174893   7.459   5.051  10.172  2.7211 -1.2912  2.3448
24484SOL    HW274894   7.346   4.953  10.196 -0.1376  0.5531 -2.2988
24485SOL     OW74895   4.880   3.619   6.915  0.9325 -0.6995 -0.0104
24485SOL    HW174896   4.801   3.667   6.938  0.8160 -1.5682  1.4766
24485SOL    HW274897   4.916   3.668   6.841 -0.1694  0.5881  0.2592
24486SOL     OW74898   6.630   2.461   4.826  0.2651  0.4588  0.7390
24486SOL    HW174899   6.681   2.527   4.781  1.9478 -1.1471  0.1784
24486SOL    HW274900   6.550   2.452   4.774  1.2315  0.1435 -0.7369
24487SOL     OW74901   6.894   1.763   3.523  0.3120 -0.2419  1.1686
24487SOL    HW174902   6.986   1.752   3.499  0.3860  0.7489  0.9252
24487SOL    HW274903   6.896   1.795   3.613  0.1141 -1.9184  1.8100
24488SOL     OW74904   6.403   7.349   8.715  0.1735  0.4246  0.2037
24488SOL    HW174905   6.348   7.316   8.644 -0.7618  1.8187  0.2407
24488SOL    HW274906   6.473   7.397   8.671  1.0882 -0.8688  0.1772
24489SOL     OW74907   1.786   3.654  11.150  0.3149  0.0514 -0.1664
24489SOL    HW174908   1.872   3.647  11.190 -0.2703 -0.4628  1.0294
24489SOL    HW274909   1.749   3.735  11.186 -0.7447 -1.0890  1.4590
24490SOL     OW74910   2.029   4.859   1.071  0.1463 -0.1496  0.2046
24490SOL    HW174911   2.023   4.921   0.999  0.0022  0.8622  1.0670
24490SOL    HW274912   2.035   4.773   1.028 -0.7122  0.3566 -0.9915
24491SOL     OW74913   0.479   0.590   7.370  0.2748 -0.3554 -0.4238
24491SOL    HW174914   0.417   0.581   7.298  1.1103  1.1214 -1.3742
24491SOL    HW274915   0.441   0.657   7.426  0.9784  0.5739 -1.0231
24492SOL     OW74916   6.329   0.570   6.690  1.0580 -0.1068  0.1633
24492SOL    HW174917   6.305   0.554   6.781  0.4501  1.6660  0.3490
24492SOL    HW274918   6.292   0.656   6.670  1.9021 -0.0918 -1.5074
24493SOL     OW74919   5.118   1.477   9.666 -0.2646  0.1412  0.2719
24493SOL    HW174920   5.145   1.386   9.654 -0.1872  0.3419 -1.2062
24493SOL    HW274921   5.119   1.489   9.761 -1.4841 -1.7631  0.5963
24494SOL     OW74922   1.019   7.536   1.590 -0.5785  0.1988  0.4028
24494SOL    HW174923   1.002   7.569   1.678  0.2925  1.9047 -0.0340
24494SOL    HW274924   1.109   7.502   1.593 -1.0397 -1.0730  0.5212
24495SOL     OW74925   7.905   7.658  10.506  0.4477  0.0289 -0.2287
24495SOL    HW174926   7.910   7.731  10.445  1.2882  0.5003  0.3762
24495SOL    HW274927   7.877   7.583  10.453 -0.5771  0.8178 -0.8261
24496SOL     OW74928   6.247   2.582  11.723 -0.5678 -0.3960  0.4297
24496SOL    HW174929   6.158   2.611  11.741 -0.0606  0.8998  0.9549
24496SOL    HW274930   6.241   2.538  11.638 -1.5397  0.4917  0.0199
24497SOL     OW74931   7.129   7.254  10.775  0.0467  0.0799 -1.0163
24497SOL    HW174932   7.149   7.162  10.794  0.1818  0.3449  0.1798
24497SOL    HW274933   7.207   7.285  10.728 -0.2267 -0.5455 -1.9114
24498SOL     OW74934   1.620   4.066   4.603  0.1838  0.4233  0.2574
24498SOL    HW174935   1.551   4.133   4.596 -0.0689  0.0915 -0.5404
24498SOL    HW274936   1.572   3.984   4.612  0.4830  0.2250  0.0291
24499SOL     OW74937   0.323   5.789   2.398 -0.3340  0.5331  0.1688
24499SOL    HW174938   0.286   5.718   2.451 -1.6850 -0.1253 -1.5426
24499SOL    HW274939   0.264   5.795   2.322  2.5211  0.1478 -2.2377
24500SOL     OW74940   3.990   7.096   4.645 -0.9283  0.0797 -0.3429
24500SOL    HW174941   4.010   7.158   4.716 -2.3873  1.1874 -0.8426
24500SOL    HW274942   3.954   7.019   4.689 -0.5631  0.2137  0.1978
24501SOL     OW74943   3.638   5.179   1.337 -0.1427  0.7137  0.0712
24501SOL    HW174944   3.599   5.101   1.377  3.2482 -1.0281  0.2938
24501SOL    HW274945   3.709   5.204   1.396  1.7761  1.1356 -2.2524
24502SOL     OW74946   4.157   5.514   3.627  0.0218 -0.2193  0.0876
24502SOL    HW174947   4.084   5.469   3.671  1.4760 -2.6041  0.2161
24502SOL    HW274948   4.231   5.454   3.635  1.3955  1.0308 -2.1940
24503SOL     OW74949   0.816   3.212   3.516  0.0399  0.5953  0.6844
24503SOL    HW174950   0.815   3.227   3.422  0.7939 -1.7358  0.2263
24503SOL    HW274951   0.724   3.195   3.538  0.1913 -1.8529 -0.2686
24504SOL     OW74952   6.468   0.738   7.783  0.0667  0.2838  0.4556
24504SOL    HW174953   6.539   0.743   7.847 -0.1846 -0.8189  0.8468
24504SOL    HW274954   6.498   0.673   7.719  0.0387  0.9029 -0.2009
24505SOL     OW74955   3.227   1.132  11.199  0.1859 -0.2066 -0.0338
24505SOL    HW174956   3.267   1.205  11.153  0.9630 -0.7304 -0.2047
24505SOL    HW274957   3.134   1.137  11.175 -0.0117  1.4013  0.8915
24506SOL     OW74958   4.878   6.191   8.767  0.0831 -0.0469  0.4673
24506SOL    HW174959   4.959   6.168   8.722 -0.2958 -1.7093  0.5643
24506SOL    HW274960   4.813   6.129   8.733 -0.1543 -1.5849  3.4122
24507SOL     OW74961   2.123   3.350   4.196  0.1327 -0.9192 -0.3841
24507SOL    HW174962   2.192   3.286   4.212  0.7014 -0.2068  0.0256
24507SOL    HW274963   2.043   3.297   4.192  0.6598 -1.7242 -0.6617
24508SOL     OW74964   4.214   1.296  10.335 -0.1794 -0.5561  0.1700
24508SOL    HW174965   4.209   1.375  10.389  1.0384  1.1199 -2.0169
24508SOL    HW274966   4.260   1.232  10.390  0.9487  1.0396  1.1469
24509SOL     OW74967   3.315   4.948   9.535 -0.0045  0.1013  0.1040
24509SOL    HW174968   3.345   4.893   9.608  1.6132  0.5561 -0.1860
24509SOL    HW274969   3.357   4.909   9.458  0.8909  1.5010 -0.1531
24510SOL     OW74970   4.172   4.333   6.558  0.4028 -0.2611 -0.1705
24510SOL    HW174971   4.241   4.395   6.537  0.3318 -0.3451 -0.6708
24510SOL    HW274972   4.107   4.384   6.607  1.1987 -0.3749  1.0454
24511SOL     OW74973   6.594   2.164   8.294 -0.3450 -0.3851  0.2570
24511SOL    HW174974   6.546   2.107   8.353  0.2896 -0.1952  0.9739
24511SOL    HW274975   6.619   2.239   8.348 -2.7463  1.5106 -1.0832
24512SOL     OW74976   3.978   3.161   6.297  0.3600  0.7077  0.2044
24512SOL    HW174977   4.001   3.226   6.230  0.4105  0.1354 -0.3458
24512SOL    HW274978   4.029   3.186   6.373  1.1573  0.7302 -0.3217
24513SOL     OW74979   4.694   4.223   2.110  0.5046 -0.4670  0.0211
24513SOL    HW174980   4.703   4.161   2.038  1.4963 -1.0310  0.6220
24513SOL    HW274981   4.599   4.234   2.119  0.3436 -1.0897 -0.7638
24514SOL     OW74982   5.826   3.069   3.825  0.4278 -0.6321 -0.0950
24514SOL    HW174983   5.752   3.124   3.853 -1.4198 -2.6691 -0.6786
24514SOL    HW274984   5.853   3.108   3.742 -2.6062 -1.9204 -1.8894
24515SOL     OW74985   0.290   2.386   8.523 -0.1951 -0.5361 -0.2469
24515SOL    HW174986   0.339   2.304   8.514  1.6471  0.6399 -1.5146
24515SOL    HW274987   0.223   2.381   8.455  0.4245 -0.6401 -0.8509
24516SOL     OW74988   0.882   2.104   6.520  0.3590  0.0151 -0.3046
24516SOL    HW174989   0.799   2.147   6.501  1.0368  1.5992  0.0990
24516SOL    HW274990   0.863   2.046   6.594 -0.3753  0.3893 -0.1898
24517SOL     OW74991   7.627   4.225   4.115 -0.4986 -0.4705 -0.1157
24517SOL    HW174992   7.709   4.197   4.156 -0.0350  0.6554 -0.2471
24517SOL    HW274993   7.581   4.143   4.096  0.3504 -1.0989  0.4469
24518SOL     OW74994   7.399   3.617  10.428 -0.5319 -0.4347 -0.2991
24518SOL    HW174995   7.345   3.541  10.406  0.0345 -1.0554  0.4073
24518SOL    HW274996   7.382   3.680  10.358 -1.0878 -1.1717 -0.8371
24519SOL     OW74997   5.011   7.438   8.736  0.3803 -0.7009 -0.1467
24519SOL    HW174998   5.105   7.453   8.745  0.8332 -2.0426 -1.9723
24519SOL    HW274999   4.992   7.458   8.644 -0.9919 -1.1012  0.0206
24520SOL     OW75000   3.556   5.716   0.364 -0.4389  0.0572  0.1843
24520SOL    HW175001   3.545   5.689   0.272 -2.6141  0.0782  0.3714
24520SOL    HW275002   3.564   5.811   0.360 -0.5678  0.0614  0.0158
24521SOL     OW75003   5.186   4.032  10.357 -0.1576 -0.1105 -0.7112
24521SOL    HW175004   5.107   4.086  10.358  0.0044  0.1194 -0.2903
24521SOL    HW275005   5.239   4.064  10.430 -0.0046 -0.7536 -0.5295
24522SOL     OW75006   4.221   6.127   8.376 -0.0274  0.1220  0.3851
24522SOL    HW175007   4.226   6.112   8.282 -1.7876  2.2629 -0.1395
24522SOL    HW275008   4.309   6.156   8.400  0.3111  0.0244 -0.6898
24523SOL     OW75009   1.863   0.618   2.842 -0.4391 -0.4893  0.1663
24523SOL    HW175010   1.800   0.580   2.781  0.2893 -0.0083 -0.9155
24523SOL    HW275011   1.809   0.669   2.903 -1.0342  1.0854 -1.5884
24524SOL     OW75012   6.189   0.396  10.125 -0.2454  0.2797 -0.4831
24524SOL    HW175013   6.233   0.336  10.185 -0.6631  0.0425 -0.4088
24524SOL    HW275014   6.239   0.477  10.133  2.4772 -0.9411 -3.1003
24525SOL     OW75015   3.184   4.940  11.394 -0.4731 -0.1548  0.2954
24525SOL    HW175016   3.175   4.902  11.481 -0.0836  1.0909  0.8923
24525SOL    HW275017   3.177   4.864  11.335  2.2414 -1.5016  1.5201
24526SOL     OW75018   1.512   3.877   0.245  0.3801 -0.0495 -0.2666
24526SOL    HW175019   1.583   3.823   0.279  1.2579  1.0228 -0.3287
24526SOL    HW275020   1.439   3.860   0.305  1.6359  1.1647  1.7367
24527SOL     OW75021   5.601   4.750   7.091  0.3748  0.3629  0.0201
24527SOL    HW175022   5.603   4.755   6.995  0.0980  0.2039  0.0063
24527SOL    HW275023   5.572   4.661   7.110  0.5797  0.3464  0.2535
24528SOL     OW75024   3.971   4.336  10.322  0.2496 -0.2059  0.2841
24528SOL    HW175025   4.006   4.416  10.360  0.6123  0.6675 -1.7455
24528SOL    HW275026   3.886   4.324  10.363 -0.0889  1.5812  0.1525
24529SOL     OW75027   7.094   5.181   1.267  0.2607  0.0061  0.1151
24529SOL    HW175028   7.016   5.226   1.234 -0.8496 -1.9508 -0.0543
24529SOL    HW275029   7.142   5.249   1.314 -2.0350  1.0721  1.0820
24530SOL     OW75030   0.079   5.393   3.069  0.3336 -0.1823 -0.2165
24530SOL    HW175031   0.092   5.341   2.989  0.5639 -0.0231 -0.2846
24530SOL    HW275032   0.002   5.354   3.111 -0.4631  0.4146 -1.0776
24531SOL     OW75033   2.998   0.405   3.377  0.5185  0.4914  0.0954
24531SOL    HW175034   3.089   0.431   3.362 -0.0874  1.7285 -1.6558
24531SOL    HW275035   2.948   0.486   3.374 -0.9434 -0.4031 -1.4557
24532SOL     OW75036   2.669   4.097   1.963  0.2665  0.8421 -0.0113
24532SOL    HW175037   2.704   4.014   1.929  1.3220  1.9710 -1.8097
24532SOL    HW275038   2.585   4.108   1.919  0.2715  0.8788 -0.0119
24533SOL     OW75039   0.559   4.667  11.561  1.0083 -0.3734 -0.5549
24533SOL    HW175040   0.576   4.581  11.599 -0.5702 -0.2294  0.5632
24533SOL    HW275041   0.546   4.725  11.636 -0.4847  0.2883 -1.2831
24534SOL     OW75042   5.927   5.407   8.548  0.0612  0.3342  0.3582
24534SOL    HW175043   6.008   5.402   8.498 -0.5381  1.0969 -0.7304
24534SOL    HW275044   5.900   5.316   8.561  0.9931  0.0864  0.5871
24535SOL     OW75045   0.809   7.201   1.729  0.5094  0.0977 -0.3425
24535SOL    HW175046   0.767   7.269   1.781 -1.6499 -1.7217  0.4597
24535SOL    HW275047   0.826   7.130   1.791  1.2429 -0.7348 -1.4535
24536SOL     OW75048   7.004   6.411   4.483 -0.2363 -0.1763 -0.0770
24536SOL    HW175049   6.921   6.376   4.449 -0.5161 -0.4151  0.8223
24536SOL    HW275050   7.028   6.480   4.422 -0.5567 -0.8063 -0.9405
24537SOL     OW75051   3.982   5.563   7.384  0.2288  0.2256 -0.5256
24537SOL    HW175052   3.933   5.558   7.467 -0.5834 -1.0865 -1.0538
24537SOL    HW275053   3.968   5.653   7.353  0.5340  0.7297  0.7376
24538SOL     OW75054   1.837   5.011   7.510 -0.2623  0.2530  0.4913
24538SOL    HW175055   1.766   4.948   7.501  1.2935 -1.5807  0.2849
24538SOL    HW275056   1.871   5.022   7.421 -0.8457  1.8841  0.4228
24539SOL     OW75057   2.094   4.102  12.192 -0.1951 -0.4106  0.2294
24539SOL    HW175058   2.155   4.159  12.238 -0.1566  1.3961 -1.8937
24539SOL    HW275059   2.008   4.125  12.228 -0.0679  0.2720  0.1135
24540SOL     OW75060   1.093   0.155   8.535  0.1829 -0.2854 -0.1521
24540SOL    HW175061   1.168   0.181   8.481  0.9929 -1.7628  0.2119
24540SOL    HW275062   1.072   0.232   8.587  0.3340  0.6918 -1.5041
24541SOL     OW75063   1.912   6.536   6.692 -0.3347 -0.1735 -0.2871
24541SOL    HW175064   1.934   6.611   6.637  0.4525 -1.0921 -1.2516
24541SOL    HW275065   1.992   6.484   6.697 -1.2605 -1.7459 -0.9154
24542SOL     OW75066   2.963   3.160   9.881 -0.5017  0.4920  0.0862
24542SOL    HW175067   2.998   3.234   9.930  0.7903 -1.4093  2.2262
24542SOL    HW275068   3.040   3.113   9.851 -1.2897 -0.3914 -0.5986
24543SOL     OW75069   6.046   3.698   3.905  0.4260 -0.3584 -0.7682
24543SOL    HW175070   6.033   3.790   3.926 -2.2135 -0.7535 -0.3488
24543SOL    HW275071   6.053   3.696   3.810 -0.3364  0.2011 -0.8425
24544SOL     OW75072   6.763   3.588   3.007  0.3647  0.3245 -0.1518
24544SOL    HW175073   6.785   3.666   3.058  0.3802  0.7268 -0.7609
24544SOL    HW275074   6.829   3.586   2.937  0.6723 -0.5205  0.1456
24545SOL     OW75075   5.648   7.105   0.912  0.2160 -0.6270 -0.2107
24545SOL    HW175076   5.557   7.103   0.941  0.1837 -0.7504 -0.3176
24545SOL    HW275077   5.664   7.197   0.891 -0.1916 -0.7477 -1.1307
24546SOL     OW75078   7.300   7.925   5.316 -0.1896 -0.2822  0.3335
24546SOL    HW175079   7.360   7.884   5.254 -1.3924  1.0714 -1.8611
24546SOL    HW275080   7.229   7.862   5.327 -0.6376 -0.0134 -0.8049
24547SOL     OW75081   7.899   5.326   0.686 -0.2551  0.7221 -0.0695
24547SOL    HW175082   7.951   5.286   0.616 -0.6958 -0.9767  0.5262
24547SOL    HW275083   7.844   5.391   0.640  0.8603  1.0569 -0.9880
24548SOL     OW75084   6.824   3.894   2.637 -0.0934 -0.2129 -0.7656
24548SOL    HW175085   6.764   3.860   2.704  0.1044 -0.2729 -0.6181
24548SOL    HW275086   6.769   3.951   2.582  0.1390  1.4641  0.6332
24549SOL     OW75087   3.197   2.713   5.393 -0.0643  0.6352  0.0662
24549SOL    HW175088   3.243   2.795   5.379 -2.0114  1.8707  0.5237
24549SOL    HW275089   3.183   2.708   5.488 -0.5615  0.1201 -0.0228
24550SOL     OW75090   6.746   7.470   4.305 -0.0536 -0.3632 -0.2145
24550SOL    HW175091   6.778   7.495   4.218 -1.7212  3.1677  0.0258
24550SOL    HW275092   6.651   7.460   4.293 -0.1928 -0.6641  1.0321
24551SOL     OW75093   5.839   0.104   4.556 -0.2988  0.6137 -0.1815
24551SOL    HW175094   5.791   0.140   4.481  0.0022 -1.1771 -1.3091
24551SOL    HW275095   5.872   0.019   4.524  0.4781  0.1432  1.7531
24552SOL     OW75096   3.639   5.530   1.196  0.2950  0.1346  0.4361
24552SOL    HW175097   3.581   5.458   1.219  1.6927 -1.1702  0.0198
24552SOL    HW275098   3.720   5.513   1.244  0.9639  0.9302 -0.3611
24553SOL     OW75099   6.618   1.915   0.578 -1.0133 -0.0753 -0.1518
24553SOL    HW175100   6.635   1.830   0.620  0.5901  0.4944  0.4112
24553SOL    HW275101   6.527   1.935   0.602 -0.4505 -0.1910  2.3765
24554SOL     OW75102   2.879   6.283   0.059 -0.5665  0.3773 -0.1619
24554SOL    HW175103   2.848   6.232  -0.015 -1.1210 -0.0706  0.3661
24554SOL    HW275104   2.968   6.252   0.074  0.3550  1.9626 -1.9452
24555SOL     OW75105   4.767   2.174   1.886 -0.1698 -0.8492 -0.2427
24555SOL    HW175106   4.701   2.152   1.951  0.2860 -0.5765  0.3295
24555SOL    HW275107   4.841   2.117   1.907 -0.2016 -1.1099 -0.8348
24556SOL     OW75108   3.626   3.497   4.734  0.4472  0.0220 -0.8699
24556SOL    HW175109   3.698   3.485   4.672 -0.2421  0.9479 -1.8906
24556SOL    HW275110   3.646   3.581   4.776  0.4833 -0.2080 -0.4287
24557SOL     OW75111   1.830   7.250  11.656  0.2081  0.0203 -0.0185
24557SOL    HW175112   1.921   7.279  11.647  1.0680 -2.8345 -1.8296
24557SOL    HW275113   1.835   7.155  11.650 -3.0522 -0.1728 -1.5402
24558SOL     OW75114   1.313   5.184   3.535 -0.2063  0.2360 -0.4202
24558SOL    HW175115   1.307   5.217   3.625 -0.4930  1.1985 -0.7836
24558SOL    HW275116   1.407   5.171   3.521 -0.0404  1.3733 -0.4296
24559SOL     OW75117   4.473   2.337   7.355 -0.0014 -0.3713 -0.2556
24559SOL    HW175118   4.482   2.335   7.450 -0.1848  1.6051 -0.1526
24559SOL    HW275119   4.384   2.307   7.339 -0.1173 -0.2990  0.2303
24560SOL     OW75120   4.227   2.080   9.667  0.3890 -0.0346 -0.0644
24560SOL    HW175121   4.279   2.150   9.707  1.4167 -0.0979 -1.2346
24560SOL    HW275122   4.276   2.000   9.687  0.8359 -0.0812 -1.2867
24561SOL     OW75123   7.536   3.219   4.335 -0.1128  0.5658 -0.0719
24561SOL    HW175124   7.448   3.254   4.323 -0.3173 -0.4511 -1.7671
24561SOL    HW275125   7.556   3.174   4.253  1.2647 -0.8208  0.9650
24562SOL     OW75126   7.421   7.804   5.956  0.2025  0.5571 -0.1989
24562SOL    HW175127   7.359   7.859   5.908 -0.0022  1.6541  1.2419
24562SOL    HW275128   7.376   7.782   6.037  0.1686 -2.0461 -0.8401
24563SOL     OW75129   4.032   0.580   0.082 -0.1265 -0.5104 -0.3778
24563SOL    HW175130   4.114   0.583   0.130 -0.3378 -1.9340  0.1299
24563SOL    HW275131   4.056   0.592  -0.009  0.9889 -3.2544 -0.5327
24564SOL     OW75132   0.302   5.619   9.302 -0.3416  0.1188 -0.6688
24564SOL    HW175133   0.213   5.636   9.271 -0.5155 -1.2481 -1.0084
24564SOL    HW275134   0.315   5.525   9.286  1.2531  0.3383 -0.8657
24565SOL     OW75135   0.598   5.899   4.412 -0.5356  0.3722  0.0087
24565SOL    HW175136   0.568   5.981   4.375  0.3956  0.5746 -0.3356
24565SOL    HW275137   0.540   5.833   4.375 -0.3014  0.6983 -0.9713
24566SOL     OW75138   5.774   4.990   8.406 -0.0337 -0.6061 -0.4579
24566SOL    HW175139   5.693   4.950   8.438 -0.3487  0.4374  0.0986
24566SOL    HW275140   5.819   4.919   8.360 -1.5721 -1.0483 -1.3562
24567SOL     OW75141   0.077   3.681   5.572  0.5522  0.4013  0.6317
24567SOL    HW175142   0.111   3.593   5.592 -0.1025  0.0438  0.2030
24567SOL    HW275143   0.015   3.699   5.643  1.3024  0.8832  1.1867
24568SOL     OW75144   5.403   2.868   1.126  0.3314  0.5658  0.6334
24568SOL    HW175145   5.403   2.830   1.214  0.0011  0.3780  0.5504
24568SOL    HW275146   5.311   2.881   1.105  0.3659 -0.3068 -0.0877
24569SOL     OW75147   5.610   3.883   9.515 -0.4576 -0.2465 -0.1253
24569SOL    HW175148   5.619   3.890   9.610  1.1522  0.6906 -0.3044
24569SOL    HW275149   5.596   3.790   9.499  1.5288 -0.7965  0.9059
24570SOL     OW75150   0.088   7.846   5.811 -0.3075  0.2296  0.2729
24570SOL    HW175151   0.031   7.770   5.799 -0.5832  0.3634  0.7120
24570SOL    HW275152   0.172   7.809   5.837 -0.5212  0.0836  0.7690
24571SOL     OW75153   4.582   7.336   7.953 -0.2863  0.0119  0.0592
24571SOL    HW175154   4.541   7.364   8.034  0.3195  1.2492 -0.0459
24571SOL    HW275155   4.676   7.337   7.971 -0.1448  0.2819 -0.6435
24572SOL     OW75156   1.192   2.764   2.808 -0.5648 -0.2176 -0.2414
24572SOL    HW175157   1.276   2.765   2.762 -1.2684 -1.2026 -1.6206
24572SOL    HW275158   1.216   2.765   2.901  0.9598 -0.2669 -0.6003
24573SOL     OW75159   6.647   5.364   3.947  0.1352 -0.0071  0.1865
24573SOL    HW175160   6.739   5.374   3.922  0.1084 -0.3900 -0.0720
24573SOL    HW275161   6.611   5.452   3.938  0.2968  0.0045 -0.4459
24574SOL     OW75162   4.683   1.249  12.165 -0.1217  0.2712  0.3593
24574SOL    HW175163   4.594   1.283  12.170 -0.1339  0.2797  0.0962
24574SOL    HW275164   4.673   1.154  12.177 -0.0174  0.4248  1.8024
24575SOL     OW75165   5.324   0.190   3.699  0.1804  0.0157 -0.7289
24575SOL    HW175166   5.342   0.283   3.692 -1.8270  0.5299  0.2823
24575SOL    HW275167   5.321   0.173   3.793 -1.6687 -0.5551 -0.8431
24576SOL     OW75168   1.770   0.758  11.705 -0.3243 -0.3097 -0.1800
24576SOL    HW175169   1.807   0.785  11.790 -0.6689 -0.1783 -0.0709
24576SOL    HW275170   1.841   0.774  11.643  0.9373 -2.9585  0.4345
24577SOL     OW75171   4.688   1.286   4.189 -0.1730 -0.3959 -0.1948
24577SOL    HW175172   4.657   1.199   4.213 -1.4948  0.8125  3.0553
24577SOL    HW275173   4.616   1.323   4.138 -0.5239 -0.4893  0.2266
24578SOL     OW75174   1.411   4.095   6.281  0.8927 -0.3919 -0.1334
24578SOL    HW175175   1.463   4.095   6.201 -0.8961 -0.6264 -1.3499
24578SOL    HW275176   1.401   4.188   6.303 -1.2689 -0.0543 -2.0822
24579SOL     OW75177   2.634   1.313   0.814 -0.2738  0.7611 -0.2018
24579SOL    HW175178   2.575   1.389   0.821 -0.6847  0.3595  0.9724
24579SOL    HW275179   2.656   1.292   0.905 -1.8636 -1.8263 -0.3169
24580SOL     OW75180   4.511   2.467   1.377  0.3024  0.0436  0.2824
24580SOL    HW175181   4.476   2.480   1.289  2.9839 -0.8634 -1.0395
24580SOL    HW275182   4.500   2.551   1.421  1.3861  1.4248 -1.9271
24581SOL     OW75183   3.094   7.429   3.100  0.1391 -0.2138 -0.5741
24581SOL    HW175184   3.185   7.421   3.130 -0.1751 -0.0306  0.4514
24581SOL    HW275185   3.067   7.517   3.126 -0.4791 -0.4301 -0.4604
24582SOL     OW75186   2.783   4.967   4.072  0.0412  0.3794  0.5167
24582SOL    HW175187   2.853   4.908   4.046 -0.3186 -0.0484  0.5063
24582SOL    HW275188   2.799   4.982   4.166 -0.6623 -0.8545  0.8561
24583SOL     OW75189   0.722   1.014   6.449  0.3030  0.4191  0.3001
24583SOL    HW175190   0.753   0.993   6.537  1.1077  1.8425  0.3866
24583SOL    HW275191   0.683   0.932   6.417 -0.6936  0.0858  2.2515
24584SOL     OW75192   1.630   0.424  10.225 -0.5740  0.1640 -0.2641
24584SOL    HW175193   1.540   0.455  10.218  0.4488  3.2581 -1.3970
24584SOL    HW275194   1.651   0.432  10.318 -2.1240 -3.1471  0.5494
24585SOL     OW75195   3.443   7.437   7.602  0.0513 -0.1287 -0.5477
24585SOL    HW175196   3.362   7.395   7.631  1.3074 -1.6207  1.0569
24585SOL    HW275197   3.468   7.390   7.523 -0.4837  0.1066 -0.8538
24586SOL     OW75198   1.244   3.598   2.655  0.2227 -0.7666  0.0685
24586SOL    HW175199   1.262   3.607   2.748 -0.6680  0.1578  0.1762
24586SOL    HW275200   1.233   3.504   2.640  4.4274 -1.4554  0.0668
24587SOL     OW75201   1.460   4.670   7.623  0.0482 -0.1737  0.5067
24587SOL    HW175202   1.529   4.692   7.560  1.0122 -0.4849  1.4207
24587SOL    HW275203   1.466   4.738   7.690 -1.2150  0.3703  0.1048
24588SOL     OW75204   5.252   5.539   3.040  0.6069 -0.1771 -0.2595
24588SOL    HW175205   5.302   5.617   3.063 -0.2068  0.2323  0.1178
24588SOL    HW275206   5.269   5.478   3.112 -0.9764  0.6672  0.8689
24589SOL     OW75207   0.936   1.074  10.114 -0.2879  0.6374  0.6157
24589SOL    HW175208   1.004   1.041  10.173  0.9692  0.2278 -0.9662
24589SOL    HW275209   0.930   1.167  10.134 -0.0131  0.4753  1.4913
24590SOL     OW75210   5.641   6.053   8.116  0.3124  0.4419  0.3877
24590SOL    HW175211   5.551   6.080   8.096  0.0805 -0.5717  0.0234
24590SOL    HW275212   5.668   6.112   8.186 -0.7787  0.4973  0.7816
24591SOL     OW75213   3.805   1.943   0.454  0.0454  0.2479 -0.6247
24591SOL    HW175214   3.864   2.009   0.490 -1.5869  0.0515  2.7715
24591SOL    HW275215   3.749   1.991   0.393 -0.1382  1.7708  0.6683
24592SOL     OW75216   4.411   0.085   2.215  0.6823  0.1523  0.2389
24592SOL    HW175217   4.317   0.086   2.229  0.8836 -0.8813  1.9366
24592SOL    HW275218   4.425   0.140   2.138 -1.0931  1.9474  1.1424
24593SOL     OW75219   6.640   6.526  11.631  0.3310  0.2163 -0.1924
24593SOL    HW175220   6.554   6.566  11.648  0.2500 -0.6164  1.5285
24593SOL    HW275221   6.695   6.599  11.602 -1.0885  0.6540 -2.0165
24594SOL     OW75222   5.756   2.910   6.007  0.5238  0.0777  0.3438
24594SOL    HW175223   5.679   2.923   5.953  0.2459  0.0143  0.7180
24594SOL    HW275224   5.725   2.858   6.081  0.9787 -0.1656  0.3695
24595SOL     OW75225   5.076   3.681   2.272 -0.4341  0.4409  0.8231
24595SOL    HW175226   5.171   3.669   2.267 -0.4470  0.2997  0.9188
24595SOL    HW275227   5.054   3.734   2.195 -0.8225 -2.7890 -1.4560
24596SOL     OW75228   7.677   5.337   7.234  0.0257  0.0843 -0.6811
24596SOL    HW175229   7.713   5.400   7.171  0.0211 -0.7469 -1.5260
24596SOL    HW275230   7.740   5.337   7.306  0.2730  0.6950 -0.8859
24597SOL     OW75231   4.054   2.104   0.892 -0.2714  0.3464  0.0606
24597SOL    HW175232   4.017   2.024   0.931  0.9775  0.2088  1.0174
24597SOL    HW275233   4.088   2.075   0.807 -2.4735  0.5265 -0.9791
24598SOL     OW75234   4.579   2.770   1.737  0.2210 -0.2876 -0.2281
24598SOL    HW175235   4.671   2.745   1.748  0.0852 -1.0369 -0.6917
24598SOL    HW275236   4.530   2.704   1.785 -0.0662  0.2458  0.2115
24599SOL     OW75237   1.228   4.515   0.842  0.5160  0.0333 -0.2432
24599SOL    HW175238   1.284   4.572   0.789  0.7177 -0.3698 -0.4730
24599SOL    HW275239   1.167   4.477   0.779 -0.1328  0.5990  0.0325
24600SOL     OW75240   5.511   4.846  11.305 -0.6396 -0.8023  0.0902
24600SOL    HW175241   5.419   4.821  11.313 -0.6869 -0.7828 -0.3384
24600SOL    HW275242   5.509   4.923  11.248 -0.4172 -0.3574  0.6714
24601SOL     OW75243   4.156   1.097   1.501 -0.4703  0.0388  0.3167
24601SOL    HW175244   4.066   1.063   1.501 -0.5344  0.2056  0.4147
24601SOL    HW275245   4.146   1.191   1.518 -0.1732 -0.2620  2.4623
24602SOL     OW75246   6.335   7.711  11.200 -0.5752  0.1570 -0.4592
24602SOL    HW175247   6.258   7.755  11.163  0.4322  2.9340  0.4394
24602SOL    HW275248   6.299   7.643  11.257 -2.3288  0.7268 -0.8189
24603SOL     OW75249   4.394   1.902   7.460 -0.0225 -0.1413 -0.1294
24603SOL    HW175250   4.402   1.919   7.366  2.0635  0.2547  0.0829
24603SOL    HW275251   4.475   1.936   7.498 -2.1320  2.7682  2.3007
24604SOL     OW75252   2.469   5.609  11.110  0.2462 -0.1919  0.2863
24604SOL    HW175253   2.397   5.561  11.151  1.2657 -1.2248  0.9143
24604SOL    HW275254   2.466   5.696  11.151 -0.5427 -0.2732  0.4109
24605SOL     OW75255   0.916   4.899   7.559 -0.4531 -0.2316 -0.0916
24605SOL    HW175256   0.883   4.933   7.476 -1.5743  2.0731  1.1852
24605SOL    HW275257   0.888   4.807   7.560 -1.9161  0.1433 -1.5304
24606SOL     OW75258   1.380   2.238   0.661 -0.0285 -0.3608  0.1300
24606SOL    HW175259   1.396   2.266   0.571  1.4349 -0.6258  0.2921
24606SOL    HW275260   1.378   2.142   0.656  1.4947 -0.4337  0.5867
24607SOL     OW75261   1.723   6.330   6.600 -0.0477 -0.2517  0.5045
24607SOL    HW175262   1.735   6.425   6.605 -0.5156 -0.2424  3.7080
24607SOL    HW275263   1.649   6.313   6.658 -0.9363 -2.4876 -1.1381
24608SOL     OW75264   7.478   4.959   6.281 -0.2093  0.3250 -0.2592
24608SOL    HW175265   7.389   4.992   6.284 -0.7105 -0.9980  0.5285
24608SOL    HW275266   7.529   5.021   6.333 -0.8730  0.5166  0.1640
24609SOL     OW75267   4.247   5.324  11.050 -0.0003 -0.2937  0.0280
24609SOL    HW175268   4.266   5.234  11.020  2.2445  0.3926 -0.8459
24609SOL    HW275269   4.244   5.317  11.145 -0.9253 -1.4681 -0.0650
24610SOL     OW75270   7.326   5.633  10.031  1.0875 -0.3277  0.6265
24610SOL    HW175271   7.352   5.564   9.970  1.2789  0.4697 -0.2224
24610SOL    HW275272   7.406   5.684  10.044  0.6439  0.4946  0.2080
24611SOL     OW75273   4.221   1.240   9.142  0.1281 -0.7555 -0.5910
24611SOL    HW175274   4.288   1.172   9.146 -0.2964 -1.1368  0.2568
24611SOL    HW275275   4.221   1.280   9.229  1.2226  1.1895 -1.4129
24612SOL     OW75276   2.538   4.046   3.647  0.1529 -0.0729 -0.2233
24612SOL    HW175277   2.612   3.987   3.659 -0.6545 -1.7655 -2.8374
24612SOL    HW275278   2.531   4.058   3.552 -1.3603  2.1243  0.0874
24613SOL     OW75279   0.136   7.193   7.792 -0.3190 -0.0542 -0.7692
24613SOL    HW175280   0.112   7.219   7.881 -0.1683 -1.3501 -0.3275
24613SOL    HW275281   0.214   7.244   7.773 -1.8818  2.3406 -1.2646
24614SOL     OW75282   7.867   5.660   7.322  0.4722  0.0870  0.0249
24614SOL    HW175283   7.956   5.625   7.317  0.7203  0.8296 -1.3496
24614SOL    HW275284   7.819   5.596   7.374  1.2834 -1.4765 -1.0492
24615SOL     OW75285   2.058   7.025   2.684 -0.0085  0.1850  0.3664
24615SOL    HW175286   2.030   7.059   2.769 -1.7129 -0.3905  0.0898
24615SOL    HW275287   2.127   7.084   2.655 -1.4178  2.1451  0.8366
24616SOL     OW75288   3.649   2.434   9.518  0.9196  0.2443  0.3285
24616SOL    HW175289   3.715   2.504   9.526  1.3323  0.1884 -1.8361
24616SOL    HW275290   3.693   2.356   9.553  0.7812  0.8511  1.9275
24617SOL     OW75291   4.384   1.311   2.308  0.1608  0.3493  0.3189
24617SOL    HW175292   4.383   1.219   2.281 -1.0013  0.0551  1.2355
24617SOL    HW275293   4.304   1.321   2.360  1.0389  1.4864  1.5241
24618SOL     OW75294   5.735   1.007   2.055  0.3616 -0.1705  0.1985
24618SOL    HW175295   5.745   0.991   1.961  1.1891  0.6218  0.1388
24618SOL    HW275296   5.736   1.102   2.063  0.7910 -0.2365  1.0551
24619SOL     OW75297   3.091   4.607   9.844  0.2343 -0.1920 -0.5082
24619SOL    HW175298   3.040   4.684   9.870  0.7269  0.2148 -0.7300
24619SOL    HW275299   3.036   4.562   9.780 -0.0452 -0.0183 -0.3918
24620SOL     OW75300   6.528   5.811   6.645  0.1551  0.2516 -0.5286
24620SOL    HW175301   6.577   5.859   6.712 -2.4768  2.0582  0.2545
24620SOL    HW275302   6.531   5.720   6.675  0.6457  0.7282  1.0055
24621SOL     OW75303   2.689   5.760   6.497 -0.3119 -0.1975  0.3699
24621SOL    HW175304   2.722   5.675   6.469  0.4544  0.5770 -1.2600
24621SOL    HW275305   2.593   5.750   6.498 -0.2472 -0.9460 -0.2513
24622SOL     OW75306   4.581   0.470   5.668  0.2801  0.4241  0.2333
24622SOL    HW175307   4.653   0.413   5.694 -0.7198 -1.1923 -0.4363
24622SOL    HW275308   4.599   0.492   5.577  0.3295  0.6634  0.3000
24623SOL     OW75309   6.107   5.989   7.754  0.5885  0.3110  0.2554
24623SOL    HW175310   6.031   5.984   7.811  0.3092  2.1432  0.1007
24623SOL    HW275311   6.078   5.951   7.671  0.7423 -1.5962  1.0281
24624SOL     OW75312   4.685   6.866  11.601  0.4706  0.2769  0.1167
24624SOL    HW175313   4.716   6.777  11.621  1.1426 -0.2754 -2.8322
24624SOL    HW275314   4.602   6.852  11.555  0.7591  1.1199 -0.6845
24625SOL     OW75315   4.159   5.893   0.567 -0.3926  0.2577  0.2236
24625SOL    HW175316   4.097   5.835   0.523 -0.9007  0.6370  0.4246
24625SOL    HW275317   4.212   5.836   0.622 -0.6230 -0.0614  0.1155
24626SOL     OW75318   1.177   0.404   5.157 -0.0726 -0.3573  0.2772
24626SOL    HW175319   1.116   0.330   5.150 -1.2451  0.6200 -0.3367
24626SOL    HW275320   1.120   0.480   5.170  0.9167  0.7996 -1.7796
24627SOL     OW75321   0.660   4.596   7.313 -0.5100 -0.5792  0.9646
24627SOL    HW175322   0.581   4.563   7.357 -1.3423  0.8505  0.6104
24627SOL    HW275323   0.629   4.626   7.228  0.5100 -0.3736  0.6540
24628SOL     OW75324   6.859   0.595   8.112  0.4393  0.2132 -0.1617
24628SOL    HW175325   6.919   0.523   8.091  0.2056 -0.0208 -0.0337
24628SOL    HW275326   6.865   0.605   8.207  0.4017  0.3033 -0.1678
24629SOL     OW75327   0.479   7.677   0.832 -0.4390  0.2190  0.0006
24629SOL    HW175328   0.573   7.692   0.845 -0.2397  0.4558 -1.4633
24629SOL    HW275329   0.444   7.665   0.920  1.0898 -0.6589  0.5341
24630SOL     OW75330   3.556   5.706   7.410 -0.1990 -0.1707  0.0827
24630SOL    HW175331   3.575   5.700   7.503  0.3743 -1.4896 -0.0992
24630SOL    HW275332   3.552   5.615   7.380  2.8708  0.1858 -1.8199
24631SOL     OW75333   4.619   2.772  11.094 -0.2754 -0.5552 -0.5488
24631SOL    HW175334   4.687   2.710  11.121  1.0783  0.6847 -0.9587
24631SOL    HW275335   4.664   2.857  11.091 -1.8859  0.3300 -0.7268
24632SOL     OW75336   6.590   6.013   6.814  0.0890  0.6283  0.5174
24632SOL    HW175337   6.515   5.968   6.854 -1.0155  0.2185 -1.7963
24632SOL    HW275338   6.559   6.103   6.800  0.6740  0.9258  1.0640
24633SOL     OW75339   3.525   2.537   7.064 -0.1847  0.3110 -0.4678
24633SOL    HW175340   3.581   2.615   7.071  0.6670 -0.4169  1.6706
24633SOL    HW275341   3.562   2.476   7.128 -1.1956 -1.6409 -1.6680
24634SOL     OW75342   4.704   0.398   4.401 -0.0139  0.1657  0.2551
24634SOL    HW175343   4.755   0.323   4.371 -1.7625 -1.0345  0.1215
24634SOL    HW275344   4.739   0.418   4.488  0.6006 -0.6992  0.2229
24635SOL     OW75345   0.123   3.276   0.581 -0.2115  0.3384  0.4262
24635SOL    HW175346   0.081   3.288   0.665 -1.3142  0.1602 -0.0834
24635SOL    HW275347   0.196   3.339   0.581  0.5357 -0.4664  1.9562
24636SOL     OW75348   7.704   0.263   6.497 -0.0661 -0.5736  0.2995
24636SOL    HW175349   7.620   0.218   6.500 -0.2136 -0.4000 -0.8508
24636SOL    HW275350   7.702   0.312   6.415  1.3864 -1.0168 -0.0203
24637SOL     OW75351   6.240   5.707   3.398 -0.4542  0.4647 -0.0492
24637SOL    HW175352   6.297   5.683   3.471 -0.6629 -0.7743 -0.2695
24637SOL    HW275353   6.294   5.691   3.320 -0.7693  0.1959 -0.2191
24638SOL     OW75354   3.549   1.742  12.226  0.2710  0.1503 -0.3274
24638SOL    HW175355   3.605   1.740  12.304  1.4728 -0.1381 -1.1615
24638SOL    HW275356   3.564   1.657  12.184 -0.7002  0.1266 -0.6428
24639SOL     OW75357   1.299   0.807   7.537 -0.1914 -0.3942  0.7002
24639SOL    HW175358   1.238   0.777   7.470 -0.5247 -1.1951  1.3353
24639SOL    HW275359   1.383   0.765   7.514  0.2314  0.9674 -0.3574
24640SOL     OW75360   4.371   1.945   5.444  0.1639  0.2477 -0.0740
24640SOL    HW175361   4.280   1.938   5.473 -0.1688 -0.8019 -1.2943
24640SOL    HW275362   4.379   2.035   5.413 -0.5154  0.2834 -0.1482
24641SOL     OW75363   7.046   5.549   9.928 -0.0045 -0.6799 -0.5488
24641SOL    HW175364   7.140   5.543   9.913  0.1834 -0.9682  0.6512
24641SOL    HW275365   7.022   5.464   9.966 -0.7065 -0.5291 -0.6338
24642SOL     OW75366   5.262   2.507   4.104  0.5196  0.1351 -0.3505
24642SOL    HW175367   5.196   2.441   4.121  0.5646  0.2529  0.3079
24642SOL    HW275368   5.248   2.574   4.171 -0.1398  1.2711 -1.5772
24643SOL     OW75369   3.986   6.230   4.927  0.6829  0.1839 -0.3878
24643SOL    HW175370   4.008   6.207   5.017 -1.4197  0.3165  0.2108
24643SOL    HW275371   3.925   6.162   4.899  0.5054  0.7242 -1.3514
24644SOL     OW75372   4.580   7.694  12.026  0.4112  1.1164  0.2447
24644SOL    HW175373   4.525   7.627  12.068  1.8839  0.0934  0.6176
24644SOL    HW275374   4.550   7.777  12.063 -2.0357  0.8053 -0.8409
24645SOL     OW75375   2.569   2.525   2.555  0.0928 -0.0553 -0.2391
24645SOL    HW175376   2.562   2.501   2.463 -0.2672  0.5883 -0.3906
24645SOL    HW275377   2.530   2.613   2.560  0.9452  0.3064  0.3613
24646SOL     OW75378   1.693   1.191   0.015 -0.4638 -0.7020 -0.8665
24646SOL    HW175379   1.692   1.263  -0.047  3.0922  1.5997  1.4332
24646SOL    HW275380   1.603   1.186   0.048 -1.2243  1.3728 -2.4590
24647SOL     OW75381   1.537   4.457   6.909  0.7333 -0.1004  0.7797
24647SOL    HW175382   1.595   4.383   6.888  1.7545  1.5049 -2.6607
24647SOL    HW275383   1.474   4.459   6.838 -0.9401  0.8414  2.2137
24648SOL     OW75384   4.676   6.940   6.404  0.0240 -0.2712 -0.5797
24648SOL    HW175385   4.720   6.880   6.464  1.6883  0.6094 -0.8460
24648SOL    HW275386   4.635   6.883   6.339  0.3341 -1.1602 -0.0209
24649SOL     OW75387   6.351   4.065   3.890  0.2346  0.1664 -0.9297
24649SOL    HW175388   6.337   4.016   3.972  0.1225  1.3471 -0.2256
24649SOL    HW275389   6.338   4.000   3.821 -0.4484 -0.6771 -0.0319
24650SOL     OW75390   1.127   7.910   2.538 -0.7310  0.0573  0.3532
24650SOL    HW175391   1.154   7.836   2.483 -1.5391  0.2599 -0.3386
24650SOL    HW275392   1.168   7.893   2.622  0.4404 -0.3243 -0.2781
24651SOL     OW75393   1.748   3.848  10.939  0.4607  0.4638  0.1215
24651SOL    HW175394   1.716   3.932  10.907 -0.4799  0.1335  0.1832
24651SOL    HW275395   1.675   3.810  10.987 -0.1042 -1.5855 -2.1310
24652SOL     OW75396   6.672   5.392   8.066 -0.2977  0.3176  0.5530
24652SOL    HW175397   6.603   5.331   8.091 -0.6357  0.5607  0.2153
24652SOL    HW275398   6.749   5.337   8.052 -0.6097 -0.0343  0.2174
24653SOL     OW75399   7.261   4.517   5.385  0.1002  0.5216  0.3226
24653SOL    HW175400   7.300   4.474   5.308  0.9181  0.2329  0.8891
24653SOL    HW275401   7.188   4.461   5.410 -0.7726  1.1085 -0.7993
24654SOL     OW75402   6.333   3.727  11.255  0.3649  0.1205  0.0151
24654SOL    HW175403   6.282   3.784  11.198  1.2477 -0.3385 -1.2701
24654SOL    HW275404   6.422   3.761  11.251  0.7589 -0.9015 -0.1959
24655SOL     OW75405   6.292   1.423   5.142 -0.1032  0.3108  0.0279
24655SOL    HW175406   6.241   1.499   5.172  1.1624  1.3085 -0.2571
24655SOL    HW275407   6.326   1.384   5.223 -0.1125  0.5163  0.1315
24656SOL     OW75408   6.298   1.997   9.885  0.0032 -0.4422 -0.1550
24656SOL    HW175409   6.378   2.014   9.933  0.5455  0.1131 -1.2135
24656SOL    HW275410   6.325   1.935   9.816 -0.5182 -0.4230 -0.3798
24657SOL     OW75411   2.332   2.842   9.867 -0.0030  0.0093  0.1846
24657SOL    HW175412   2.349   2.899   9.942  0.4167  0.3591 -0.1720
24657SOL    HW275413   2.241   2.815   9.878 -0.2401  0.8272  0.3150
24658SOL     OW75414   4.187   4.354   9.172 -0.0944  0.7925 -0.4494
24658SOL    HW175415   4.268   4.363   9.222 -0.1449 -2.2071  0.3333
24658SOL    HW275416   4.213   4.316   9.089 -0.4246  2.5318 -1.3885
24659SOL     OW75417   2.987   7.583   5.898  0.0068 -0.9008 -0.3365
24659SOL    HW175418   2.905   7.619   5.932 -0.0006 -2.2166  1.1178
24659SOL    HW275419   3.023   7.653   5.842  0.6024  1.9122  3.2270
24660SOL     OW75420   5.223   6.409   5.184 -0.4463  0.6022 -0.1920
24660SOL    HW175421   5.197   6.487   5.233 -0.5945  0.3834  0.0787
24660SOL    HW275422   5.141   6.363   5.166 -0.1990 -0.5489  1.4249
24661SOL     OW75423   7.491   7.184   6.831  0.3837 -0.1505 -0.1768
24661SOL    HW175424   7.574   7.155   6.869 -0.4897 -0.1134  1.9104
24661SOL    HW275425   7.439   7.103   6.823  0.5657 -0.1720 -1.4562
24662SOL     OW75426   4.782   7.509  10.410 -0.0663  0.0288  0.2493
24662SOL    HW175427   4.718   7.440  10.393 -1.0460  0.1947  2.7642
24662SOL    HW275428   4.865   7.474  10.376 -0.5534 -2.3640  1.2688
24663SOL     OW75429   2.100   3.296  12.344  0.5112  0.5713 -0.3270
24663SOL    HW175430   2.049   3.375  12.323 -0.1404 -0.1056 -1.3828
24663SOL    HW275431   2.035   3.234  12.378  0.7707 -0.0122 -0.8833
24664SOL     OW75432   1.445   4.716  10.468  0.2804  0.2901  0.2819
24664SOL    HW175433   1.404   4.649  10.413 -0.1016  0.0513  0.8461
24664SOL    HW275434   1.420   4.692  10.557  0.5263  0.9239  0.5237
24665SOL     OW75435   2.005   2.213   9.926  0.1260 -0.0463  0.0426
24665SOL    HW175436   1.984   2.206   9.833  0.6340  4.0067 -0.5368
24665SOL    HW275437   1.920   2.211   9.970 -0.2767  0.1469 -0.7135
24666SOL     OW75438   5.100   3.890   8.708 -0.5450  0.0258 -0.4256
24666SOL    HW175439   5.105   3.858   8.618  0.4350  0.9171 -0.7096
24666SOL    HW275440   5.022   3.848   8.744 -2.0720  1.1055 -2.2849
24667SOL     OW75441   0.363   0.936   5.274 -0.1064 -0.3415  0.0147
24667SOL    HW175442   0.348   0.842   5.262  1.4869 -0.6216 -0.0193
24667SOL    HW275443   0.305   0.961   5.345 -0.2854 -1.4379  0.2677
24668SOL     OW75444   3.270   6.313  11.927  0.1148  0.0949 -0.4500
24668SOL    HW175445   3.359   6.299  11.958  0.5059 -1.4684 -2.1331
24668SOL    HW275446   3.219   6.242  11.966  0.7880 -2.4657 -3.7776
24669SOL     OW75447   4.259   1.497  11.494 -0.4323 -0.2738 -0.4294
24669SOL    HW175448   4.219   1.582  11.476  1.2530  0.6646  0.0302
24669SOL    HW275449   4.245   1.447  11.414 -0.8894  0.6614 -0.9594
24670SOL     OW75450   3.323   5.974   3.461 -0.0955 -0.1725 -0.0627
24670SOL    HW175451   3.409   6.013   3.474 -0.5656  1.2782 -1.0027
24670SOL    HW275452   3.341   5.886   3.428  1.0707  0.4941 -1.3253
24671SOL     OW75453   0.543   0.185   4.214 -0.2691  0.6996  0.2542
24671SOL    HW175454   0.509   0.107   4.170 -0.2894  0.1810  1.1681
24671SOL    HW275455   0.555   0.249   4.144 -2.3790  0.6399 -0.2110
24672SOL     OW75456   2.834   3.789  11.919 -0.0487 -0.2149 -0.2276
24672SOL    HW175457   2.918   3.806  11.875  0.1680 -2.9392 -1.0887
24672SOL    HW275458   2.779   3.863  11.895  1.5267  0.7157 -1.2056
24673SOL     OW75459   1.078   1.320   7.567 -0.0905 -0.6963  0.5016
24673SOL    HW175460   1.144   1.388   7.580 -0.6873 -0.0893  0.4009
24673SOL    HW275461   1.129   1.241   7.549  0.6668  0.3269 -2.5519
24674SOL     OW75462   7.392   5.392   2.368 -0.2547 -0.0564  0.4210
24674SOL    HW175463   7.413   5.466   2.310  1.3640 -2.1055 -1.8022
24674SOL    HW275464   7.306   5.413   2.404 -0.0038  2.7207 -0.3658
24675SOL     OW75465   3.865   2.772   9.903  0.2192  0.0071 -0.1328
24675SOL    HW175466   3.886   2.865   9.909  0.1878 -0.0630  1.4478
24675SOL    HW275467   3.815   2.753   9.983 -0.0556 -1.3007 -0.5805
24676SOL     OW75468   7.863   2.335  12.409 -0.7304  0.0208  0.6415
24676SOL    HW175469   7.818   2.386  12.476 -0.3663  1.3432 -0.0930
24676SOL    HW275470   7.956   2.357  12.421 -0.6023 -0.2233  0.1118
24677SOL     OW75471   2.607   6.508   6.779  0.1162 -0.3116 -0.1548
24677SOL    HW175472   2.637   6.510   6.688  0.7932  1.0698  0.0746
24677SOL    HW275473   2.602   6.414   6.800  1.2951 -0.6398 -1.1786
24678SOL     OW75474   7.633   0.565   5.503  0.0685 -0.2375 -0.1234
24678SOL    HW175475   7.605   0.643   5.552  0.5178 -0.6923  0.8765
24678SOL    HW275476   7.692   0.519   5.562 -1.8707 -2.5074  0.1551
24679SOL     OW75477   1.716   4.903   5.561 -0.6212 -0.6222 -0.0934
24679SOL    HW175478   1.643   4.842   5.568 -0.3756 -0.9443 -0.2686
24679SOL    HW275479   1.785   4.863   5.615 -0.0226 -1.1609 -1.2191
24680SOL     OW75480   3.068   0.837   3.271  0.3773  0.3128  0.4458
24680SOL    HW175481   3.130   0.775   3.233 -0.1097  1.2539 -2.1371
24680SOL    HW275482   3.018   0.787   3.335  2.4072 -0.9768  1.0817
24681SOL     OW75483   2.042   0.750   9.326  0.1256  0.4976 -0.0973
24681SOL    HW175484   1.964   0.709   9.363 -0.8650  0.5126 -2.0454
24681SOL    HW275485   2.061   0.823   9.384 -0.5281 -0.2756  1.1303
24682SOL     OW75486   6.870   4.638  12.048 -0.0296 -0.0544 -0.0095
24682SOL    HW175487   6.933   4.708  12.068  1.0710 -0.7614 -0.8348
24682SOL    HW275488   6.904   4.599  11.967 -1.5501 -0.4658 -0.4732
24683SOL     OW75489   4.699   7.055   5.218 -0.2177  0.3264  0.1243
24683SOL    HW175490   4.663   6.970   5.242 -0.5510  0.6765  0.8935
24683SOL    HW275491   4.665   7.072   5.130 -2.5144  0.9457  1.0615
24684SOL     OW75492   6.049   6.583   8.757  0.3220 -0.4326  0.3445
24684SOL    HW175493   6.092   6.637   8.823 -0.0566  0.2336  0.0661
24684SOL    HW275494   6.061   6.632   8.675  0.2473 -0.9341  0.0290
24685SOL     OW75495   4.473   2.721   3.294  0.1079 -0.1224 -0.7121
24685SOL    HW175496   4.478   2.794   3.233  1.0885 -0.1336 -0.6679
24685SOL    HW275497   4.410   2.749   3.361  0.2100  0.5345 -0.8860
24686SOL     OW75498   6.920   2.942   7.249  0.5085  0.4127 -0.5745
24686SOL    HW175499   6.873   2.862   7.273  1.3347 -0.0411 -0.4195
24686SOL    HW275500   6.962   2.921   7.166 -0.0700  1.0338 -1.0350
24687SOL     OW75501   0.355   2.512  10.125 -0.2018  0.3416  0.7872
24687SOL    HW175502   0.433   2.532  10.177  0.2231 -1.3592  0.8698
24687SOL    HW275503   0.383   2.445  10.063 -1.1918  0.9300 -0.3513
24688SOL     OW75504   5.598   5.069   0.157 -0.7224 -0.8205  0.0734
24688SOL    HW175505   5.601   4.989   0.209  0.6798 -1.1228 -0.4207
24688SOL    HW275506   5.662   5.054   0.088 -0.5825  0.6595 -0.1349
24689SOL     OW75507   1.412   5.556   8.802  0.4743 -0.0556 -0.0055
24689SOL    HW175508   1.490   5.609   8.821  0.4750 -0.1893  0.3657
24689SOL    HW275509   1.440   5.495   8.734  0.6339  0.0433 -0.0286
24690SOL     OW75510   6.458   1.558   3.647 -0.0167  0.3956 -0.0258
24690SOL    HW175511   6.553   1.570   3.650  0.0194  0.0465  0.2286
24690SOL    HW275512   6.432   1.548   3.738 -0.3684  0.9859 -0.0517
24691SOL     OW75513   0.617   2.249  10.218  0.1262 -0.0172  0.5135
24691SOL    HW175514   0.546   2.210  10.167 -0.4164  0.3934  0.9363
24691SOL    HW275515   0.613   2.204  10.302 -1.1392  1.5694  1.3554
24692SOL     OW75516   2.976   1.340   1.305 -0.2065 -1.0441 -0.0690
24692SOL    HW175517   3.055   1.296   1.273  1.0294  0.6562  0.5104
24692SOL    HW275518   3.007   1.396   1.376 -1.7115  0.6630 -0.6833
24693SOL     OW75519   0.261   6.765   3.059  0.6097 -0.1977  0.1401
24693SOL    HW175520   0.198   6.697   3.083 -0.5211  0.6706 -0.2829
24693SOL    HW275521   0.253   6.831   3.129  0.0271  0.5596 -0.6107
24694SOL     OW75522   2.013   6.627   4.093  0.1987  0.5836  0.2870
24694SOL    HW175523   2.094   6.676   4.078  1.3521 -0.4395  2.5702
24694SOL    HW275524   1.983   6.658   4.179 -0.2329 -1.1032  0.7738
24695SOL     OW75525   0.390   6.496   2.930 -0.3412 -0.0704 -0.1340
24695SOL    HW175526   0.326   6.465   2.993 -1.2364  0.5273 -0.7170
24695SOL    HW275527   0.366   6.587   2.914  1.1128  0.3955  0.1811
24696SOL     OW75528   6.739   3.112  11.915 -0.0814  0.2812 -0.5256
24696SOL    HW175529   6.706   3.109  12.005 -0.7750  0.3976 -0.7678
24696SOL    HW275530   6.681   3.053  11.866  0.2174  0.3102 -0.9218
24697SOL     OW75531   2.288   1.933   5.111 -0.0414  0.0565 -0.2098
24697SOL    HW175532   2.198   1.964   5.102  0.2152  1.6263  1.9717
24697SOL    HW275533   2.279   1.843   5.143 -0.8335 -0.0033 -0.5864
24698SOL     OW75534   5.164   0.799   6.900  0.2516  0.1282  0.0189
24698SOL    HW175535   5.126   0.829   6.817 -0.5922  1.2975  0.7903
24698SOL    HW275536   5.106   0.835   6.967  1.5162  0.1144  1.1647
24699SOL     OW75537   1.335   1.307  10.669 -0.1115 -0.3036 -0.2519
24699SOL    HW175538   1.380   1.347  10.594  0.0750  1.1275  0.5907
24699SOL    HW275539   1.269   1.371  10.695 -1.5113 -1.6189 -0.3653
24700SOL     OW75540   7.148   4.475   3.697 -0.0849  0.4254  0.6591
24700SOL    HW175541   7.224   4.432   3.660  0.3722  2.9390 -1.6343
24700SOL    HW275542   7.074   4.421   3.670  0.6065 -0.0861 -0.2469
24701SOL     OW75543   2.000   0.842   8.692  0.4522  0.6744  0.1169
24701SOL    HW175544   2.005   0.910   8.759 -0.3690  0.7831  0.0750
24701SOL    HW275545   2.075   0.861   8.634  0.1716  1.6212  0.0349
24702SOL     OW75546   7.371   2.459   1.971  0.3706 -0.3065  0.0783
24702SOL    HW175547   7.355   2.550   1.946  0.3893 -0.2928  0.1156
24702SOL    HW275548   7.299   2.409   1.933 -1.5277  0.1354  2.8452
24703SOL     OW75549   6.354   3.121   6.639 -0.0629 -0.1211 -0.2667
24703SOL    HW175550   6.402   3.114   6.556  2.4496  0.0257  1.0787
24703SOL    HW275551   6.415   3.165   6.698 -1.0879 -1.7442  2.1659
24704SOL     OW75552   2.211   7.260   4.321 -0.0034 -0.1838 -0.0467
24704SOL    HW175553   2.165   7.320   4.380 -1.2734 -0.3323 -0.8353
24704SOL    HW275554   2.213   7.177   4.368  1.2172  0.2887  0.7947
24705SOL     OW75555   7.268   0.874  10.075 -0.0560 -0.2192 -0.7343
24705SOL    HW175556   7.257   0.871   9.980 -2.3926 -1.1011 -0.4915
24705SOL    HW275557   7.251   0.966  10.098  0.6766  0.0314 -1.1575
24706SOL     OW75558   6.249   3.472   7.980 -0.1090  0.3071  0.2109
24706SOL    HW175559   6.325   3.421   8.009  0.5658  1.1694  0.0117
24706SOL    HW275560   6.241   3.451   7.887 -0.4239 -0.1696  0.3463
24707SOL     OW75561   3.459   3.804   1.349 -0.3876 -0.3805 -0.2934
24707SOL    HW175562   3.470   3.899   1.338 -2.5753 -0.1017 -0.5625
24707SOL    HW275563   3.447   3.793   1.443 -0.7089 -0.3079 -0.3245
24708SOL     OW75564   5.263   4.517   4.222  0.2760  0.4334  0.0306
24708SOL    HW175565   5.219   4.556   4.297  1.2575 -0.1765  0.9477
24708SOL    HW275566   5.195   4.509   4.156 -0.2857  2.3531  0.3009
24709SOL     OW75567   3.049   1.207   7.457  0.4434 -0.5959 -0.0146
24709SOL    HW175568   3.005   1.290   7.480  1.6045  0.0613 -0.0895
24709SOL    HW275569   3.014   1.186   7.370 -1.9928 -1.7158  1.1458
24710SOL     OW75570   6.531   7.384   7.906  0.0932  0.0132  0.1510
24710SOL    HW175571   6.565   7.295   7.914  2.9837  0.8549 -1.4545
24710SOL    HW275572   6.505   7.392   7.815  2.0552  1.4145 -0.3606
24711SOL     OW75573   0.606   5.457   2.895 -0.0251  0.2020 -0.1855
24711SOL    HW175574   0.585   5.452   2.802 -0.4961 -1.5038 -0.0075
24711SOL    HW275575   0.656   5.378   2.913  1.8008  1.4698  0.6256
24712SOL     OW75576   7.873   7.740  11.787 -0.0005  0.3670 -0.3908
24712SOL    HW175577   7.791   7.734  11.738  0.0834 -1.9826 -0.3736
24712SOL    HW275578   7.857   7.807  11.853 -1.6581  0.4622 -0.8381
24713SOL     OW75579   4.779   0.299   5.776  0.2382 -0.4107 -0.3290
24713SOL    HW175580   4.778   0.256   5.861  3.8910 -1.4110 -0.6477
24713SOL    HW275581   4.821   0.237   5.717 -0.6890  0.9007 -2.5373
24714SOL     OW75582   0.499   0.027   1.861 -0.1353 -0.2543 -0.1086
24714SOL    HW175583   0.439   0.099   1.842  0.3046  0.0781 -0.2520
24714SOL    HW275584   0.571   0.039   1.799 -0.6798 -1.5818 -1.0459
24715SOL     OW75585   6.489   0.371  10.467  0.3793 -0.0241  0.6352
24715SOL    HW175586   6.473   0.464  10.449  0.9201 -0.1530 -0.6063
24715SOL    HW275587   6.413   0.326  10.432 -0.5723  0.0322  2.5178
24716SOL     OW75588   4.719   3.661   7.840 -0.3959 -0.1794  0.5424
24716SOL    HW175589   4.629   3.645   7.812 -0.9445  2.3037  0.6754
24716SOL    HW275590   4.747   3.577   7.877 -1.6105 -1.8809 -2.0986
24717SOL     OW75591   5.308   0.798   1.030  0.1458 -0.3492 -0.3846
24717SOL    HW175592   5.366   0.870   1.054 -0.9887  0.2414  0.6886
24717SOL    HW275593   5.339   0.770   0.944  1.7263  0.2279 -0.0378
24718SOL     OW75594   0.765   7.610   1.459 -0.1070 -0.3106 -0.3323
24718SOL    HW175595   0.706   7.567   1.521  0.5871 -2.3556 -1.0131
24718SOL    HW275596   0.853   7.586   1.489  0.4811  2.3833  0.4595
24719SOL     OW75597   4.947   1.052  11.991  0.1548 -0.5286 -0.0053
24719SOL    HW175598   4.882   1.039  12.060 -0.4017 -1.2459 -0.6398
24719SOL    HW275599   4.955   0.966  11.950  1.1179 -0.3180 -0.2817
24720SOL     OW75600   5.212   7.339   4.052  0.5116  0.5571  0.7336
24720SOL    HW175601   5.242   7.340   3.961 -1.7348 -1.3312 -0.0999
24720SOL    HW275602   5.201   7.247   4.073 -2.7809  1.0120  1.5566
24721SOL     OW75603   3.597   1.685   7.458  0.2684 -0.1569  0.3285
24721SOL    HW175604   3.692   1.684   7.475  0.1409 -0.7947  1.0811
24721SOL    HW275605   3.560   1.738   7.528 -0.0142 -0.6355  0.5470
24722SOL     OW75606   7.945   5.763   2.099  0.2267  0.0195 -0.4492
24722SOL    HW175607   7.945   5.848   2.144  0.5659 -0.1448 -0.1297
24722SOL    HW275608   8.028   5.760   2.053  0.5599 -0.4537  0.1613
24723SOL     OW75609   0.373   5.381   9.170 -0.2082 -0.0270  0.1005
24723SOL    HW175610   0.447   5.384   9.109  0.1308  1.2077  0.5417
24723SOL    HW275611   0.345   5.290   9.169 -0.0452 -0.0843 -1.6930
24724SOL     OW75612   7.602   3.900   2.706 -0.0357 -0.5100 -0.1482
24724SOL    HW175613   7.551   3.867   2.780  0.1805  0.3001  0.3616
24724SOL    HW275614   7.654   3.971   2.741  0.6280 -0.5958 -0.9191
24725SOL     OW75615   4.071   5.914   9.504 -0.7461 -0.3093 -0.7507
24725SOL    HW175616   4.080   5.979   9.574  2.9397 -1.9445  0.5553
24725SOL    HW275617   4.094   5.961   9.424  0.1602  0.4279 -0.0754
24726SOL     OW75618   3.163   4.644   5.040 -0.1727 -0.3381 -0.8174
24726SOL    HW175619   3.143   4.684   4.956  0.6065 -1.6789 -1.6789
24726SOL    HW275620   3.135   4.553   5.031  3.0804 -1.4861 -0.9707
24727SOL     OW75621   0.048   3.767  10.882 -0.0182  0.5710  0.2596
24727SOL    HW175622  -0.012   3.692  10.888 -0.7160  0.7117 -2.9070
24727SOL    HW275623   0.113   3.751  10.949 -1.4033 -1.7048  1.1804
24728SOL     OW75624   2.349   1.851  10.555  0.3883 -0.3180 -0.8028
24728SOL    HW175625   2.287   1.921  10.575  0.1366 -0.9490  0.7475
24728SOL    HW275626   2.401   1.886  10.482  0.6135  1.6957  0.2354
24729SOL     OW75627   4.183   1.280  10.938 -0.1118  0.4099 -0.2564
24729SOL    HW175628   4.131   1.317  11.009  0.4915 -0.8450  0.8881
24729SOL    HW275629   4.271   1.313  10.953  1.2383 -3.6626  2.7303
24730SOL     OW75630   7.561   0.181   0.229 -0.0179  0.0430 -0.5444
24730SOL    HW175631   7.597   0.116   0.289  2.4241  0.4357 -1.4737
24730SOL    HW275632   7.566   0.140   0.143 -0.1744  0.7696 -0.9044
24731SOL     OW75633   6.699   0.293  11.642  0.4250 -0.0254 -0.0672
24731SOL    HW175634   6.695   0.208  11.597 -0.1176  0.8210 -1.6893
24731SOL    HW275635   6.684   0.357  11.574  0.6521  1.3995  1.1663
24732SOL     OW75636   6.150   2.905   5.481  0.0502 -0.4806  0.4971
24732SOL    HW175637   6.215   2.857   5.430 -0.6687 -2.2705  1.1383
24732SOL    HW275638   6.188   2.912   5.568 -0.5129 -1.4232  0.8418
24733SOL     OW75639   2.262   5.178   4.030  0.1569  0.5747 -0.0140
24733SOL    HW175640   2.258   5.242   3.959 -0.7408  2.1000  1.3331
24733SOL    HW275641   2.355   5.164   4.046  0.3577  0.7340 -1.0343
24734SOL     OW75642   5.438   1.591   8.173 -0.0510  0.2866 -0.3332
24734SOL    HW175643   5.445   1.647   8.096  1.6575  0.7828  0.1382
24734SOL    HW275644   5.438   1.502   8.139  1.1367  0.4900 -0.8916
24735SOL     OW75645   0.344   7.054   5.156  0.0588  0.5089  0.0011
24735SOL    HW175646   0.433   7.022   5.139  0.3126  1.2167 -0.0263
24735SOL    HW275647   0.318   7.009   5.237  0.5719  0.5529  0.1946
24736SOL     OW75648   1.063   3.401   5.499 -0.0150  0.3886 -0.6491
24736SOL    HW175649   0.969   3.389   5.482 -0.1146 -0.9864  0.6946
24736SOL    HW275650   1.074   3.495   5.506 -1.4636  0.5355  0.0144
24737SOL     OW75651   3.119   4.313   4.007 -0.2821  0.9139 -0.1414
24737SOL    HW175652   3.153   4.330   4.095  1.8803 -0.4039 -0.6523
24737SOL    HW275653   3.081   4.397   3.980  0.4006  1.7882  1.4528
24738SOL     OW75654   3.576   5.396   7.434 -0.0632  0.6491  0.3593
24738SOL    HW175655   3.485   5.373   7.416  0.0953 -0.5772  0.9743
24738SOL    HW275656   3.626   5.320   7.404  0.7195  1.1508  0.3639
24739SOL     OW75657   0.330   6.935   5.677  0.3156  0.1852  0.1170
24739SOL    HW175658   0.331   7.025   5.711 -0.4897  0.4072 -0.4101
24739SOL    HW275659   0.255   6.895   5.720  0.1053  0.0555 -0.3649
24740SOL     OW75660   7.613   2.150   9.333 -0.0098  0.0881 -0.1072
24740SOL    HW175661   7.581   2.177   9.419 -1.4800  0.6330 -0.8028
24740SOL    HW275662   7.700   2.112   9.351 -0.8074 -0.9802  1.7742
24741SOL     OW75663   0.959   7.561   3.759  0.0979  0.1587  0.3216
24741SOL    HW175664   0.981   7.540   3.668 -3.0050 -1.1655 -0.2232
24741SOL    HW275665   1.026   7.625   3.785  1.7537 -0.2622 -2.4877
24742SOL     OW75666   1.348   0.918   3.059  0.1061  0.1899 -0.5949
24742SOL    HW175667   1.325   0.917   3.152 -1.1115 -0.1128 -0.8830
24742SOL    HW275668   1.271   0.882   3.015  0.9225 -0.2731 -1.6697
24743SOL     OW75669   0.905   0.584   4.594  0.3409 -0.0299 -0.2862
24743SOL    HW175670   0.869   0.670   4.613  0.7607  0.2186 -0.6039
24743SOL    HW275671   0.991   0.583   4.638  0.9314  0.2221 -1.4001
24744SOL     OW75672   3.477   6.894   3.759 -0.5177  0.2603 -0.1725
24744SOL    HW175673   3.534   6.875   3.833 -0.3349  0.0600 -0.3598
24744SOL    HW275674   3.523   6.857   3.683  0.1437  1.9838 -0.6501
24745SOL     OW75675   5.006   6.778  11.880  0.1881  0.0323  0.1151
24745SOL    HW175676   4.951   6.747  11.809  1.3290  1.6293 -1.5583
24745SOL    HW275677   5.043   6.699  11.919  1.0399 -0.8669 -2.3593
24746SOL     OW75678   7.567   3.868  10.822  0.1681 -0.2158  0.7694
24746SOL    HW175679   7.578   3.774  10.832 -0.6475 -0.3604  0.4036
24746SOL    HW275680   7.474   3.884  10.842  0.2391  0.4767  0.5901
24747SOL     OW75681   6.419   6.154   6.063  0.1289  0.0589  0.1823
24747SOL    HW175682   6.366   6.099   6.005  1.1422  1.2395 -1.9477
24747SOL    HW275683   6.453   6.223   6.007  1.7146  0.9040  2.0708
24748SOL     OW75684   3.649   2.901   6.357 -0.3376 -0.3744  0.3167
24748SOL    HW175685   3.636   2.956   6.281  0.8850  0.4412  0.6775
24748SOL    HW275686   3.571   2.916   6.411 -0.1011  0.8851  0.3349
24749SOL     OW75687   5.076   5.449  11.389 -0.2731  0.2233 -0.6170
24749SOL    HW175688   5.073   5.501  11.309  0.4697 -0.6527 -1.2303
24749SOL    HW275689   4.984   5.431  11.409 -0.5230  1.3470 -0.6505
24750SOL     OW75690   1.919   1.126   6.240  0.1993  0.6728 -0.6797
24750SOL    HW175691   1.932   1.059   6.307 -0.2448 -0.1096 -1.3493
24750SOL    HW275692   1.982   1.195   6.261  0.2810  0.2983  0.3485
24751SOL     OW75693   2.775   0.347   9.589  0.0293 -0.0668 -0.0200
24751SOL    HW175694   2.687   0.380   9.573 -0.3142 -1.0586 -0.2371
24751SOL    HW275695   2.790   0.364   9.682 -0.3986  0.1003  0.0191
24752SOL     OW75696   0.705   3.341   9.755 -0.1484 -0.3135 -0.3955
24752SOL    HW175697   0.706   3.390   9.673  2.7458  0.6368  0.1020
24752SOL    HW275698   0.673   3.404   9.820  1.6353  0.3674 -0.1160
24753SOL     OW75699   0.397   1.426  10.335 -0.4038  0.6407  0.4002
24753SOL    HW175700   0.486   1.456  10.317 -0.5985  1.6005  0.9633
24753SOL    HW275701   0.400   1.331  10.320  1.5097  0.1187  3.2557
24754SOL     OW75702   4.867   7.420   1.605 -0.2486 -0.5870 -0.3830
24754SOL    HW175703   4.866   7.373   1.521  0.2837 -1.5017  0.1124
24754SOL    HW275704   4.818   7.364   1.665 -1.8784  0.7329 -0.3962
24755SOL     OW75705   2.851   6.495  10.481 -0.0042 -0.0345 -0.1345
24755SOL    HW175706   2.850   6.471  10.574  0.8422  0.0914 -0.0879
24755SOL    HW275707   2.770   6.457  10.446  1.0282 -2.6144  0.0279
24756SOL     OW75708   4.342   2.491   3.430 -0.3659 -0.7546  0.0753
24756SOL    HW175709   4.295   2.557   3.481 -0.9656 -1.3333  0.2913
24756SOL    HW275710   4.393   2.541   3.367 -1.7815 -0.1117 -0.5945
24757SOL     OW75711   1.640   4.491  11.847 -0.3031  0.3980 -0.0522
24757SOL    HW175712   1.670   4.449  11.927 -0.4664 -0.1832 -0.2911
24757SOL    HW275713   1.545   4.478  11.846 -0.1315 -1.0059 -1.1145
24758SOL     OW75714   1.882   6.439  11.601  0.0078 -0.3755  0.3172
24758SOL    HW175715   1.812   6.459  11.538 -0.2382 -1.3676  0.2506
24758SOL    HW275716   1.843   6.374  11.660  0.4573  0.0366  1.0833
24759SOL     OW75717   4.058   7.694   0.359  0.1171  0.0424 -0.4296
24759SOL    HW175718   4.008   7.663   0.284  1.4595  0.9282 -1.7620
24759SOL    HW275719   4.119   7.758   0.322  0.9553  0.3723  1.4007
24760SOL     OW75720   5.634   1.870  12.330 -0.0728  0.2034  0.6062
24760SOL    HW175721   5.702   1.852  12.265  0.9813  1.1486  1.4102
24760SOL    HW275722   5.552   1.867  12.280  0.6378  0.0709 -0.5959
24761SOL     OW75723   5.797   6.180   6.351 -0.3744  1.1632  0.3545
24761SOL    HW175724   5.851   6.155   6.277  0.8766  0.8375  1.3423
24761SOL    HW275725   5.811   6.274   6.361 -0.0188  1.0889  0.5754
24762SOL     OW75726   7.676   7.362   6.775 -0.2485 -0.2682 -0.4650
24762SOL    HW175727   7.587   7.334   6.798 -0.6783 -0.3086 -2.0964
24762SOL    HW275728   7.732   7.321   6.841 -1.2789 -1.5314 -0.3359
24763SOL     OW75729   0.268   7.159   4.744 -0.8933 -0.0918 -0.0270
24763SOL    HW175730   0.253   7.164   4.649  2.7754  0.3920 -0.6982
24763SOL    HW275731   0.211   7.086   4.772 -2.0864 -0.2651 -2.5478
24764SOL     OW75732   0.056   2.559   3.993 -0.0602  0.1557 -0.1475
24764SOL    HW175733  -0.031   2.568   4.033 -0.0836 -1.3326  0.1882
24764SOL    HW275734   0.111   2.620   4.043 -0.3542 -0.7953  1.4273
24765SOL     OW75735   4.003   7.543   2.825  0.2942 -0.4081  0.3829
24765SOL    HW175736   3.919   7.500   2.842  0.8868 -2.1068 -0.6461
24765SOL    HW275737   3.998   7.570   2.733  0.2414  1.0862  0.8012
24766SOL     OW75738   6.022   1.037   8.175 -0.4554  0.2470  0.3482
24766SOL    HW175739   6.007   0.961   8.230  1.9407  1.2635  2.6247
24766SOL    HW275740   5.941   1.087   8.179 -1.6504 -1.5774 -0.2627
24767SOL     OW75741   1.792   3.876   1.619 -0.2464 -0.5000 -0.1318
24767SOL    HW175742   1.830   3.962   1.632 -0.8291 -0.4421  1.4133
24767SOL    HW275743   1.794   3.863   1.524 -0.6023  1.4253 -0.4546
24768SOL     OW75744   6.208   2.648   9.795 -0.0326 -0.1883 -0.5998
24768SOL    HW175745   6.128   2.608   9.760  0.1432  0.1797 -1.4498
24768SOL    HW275746   6.246   2.694   9.720  0.9069 -0.2454 -0.1646
24769SOL     OW75747   4.492   1.875   4.015 -0.2119 -0.1068  0.3904
24769SOL    HW175748   4.474   1.839   4.102  2.4139  2.0371  1.9806
24769SOL    HW275749   4.582   1.851   3.997 -0.4491  0.2069 -1.4123
24770SOL     OW75750   6.263   4.316  12.332  0.1182  0.7554 -0.7276
24770SOL    HW175751   6.356   4.305  12.314 -0.1862 -2.3076 -0.9862
24770SOL    HW275752   6.227   4.350  12.250  0.7615  0.2489 -1.2342
24771SOL     OW75753   6.061   1.102   4.183  0.6084  0.3693 -0.1325
24771SOL    HW175754   6.149   1.065   4.193  0.1113 -1.1343 -0.9483
24771SOL    HW275755   6.076   1.194   4.161  1.9192  0.6071  1.5579
24772SOL     OW75756   1.151   7.229  11.392  0.3912 -0.5599 -0.0331
24772SOL    HW175757   1.093   7.162  11.357 -0.2707  1.3341 -2.8749
24772SOL    HW275758   1.112   7.252  11.477 -0.5406 -2.2866  0.0478
24773SOL     OW75759   7.038   6.295  12.289  0.0336 -0.3364 -0.6375
24773SOL    HW175760   6.991   6.368  12.330  0.2865 -2.3154  3.6941
24773SOL    HW275761   6.970   6.229  12.274  0.4339 -0.7678 -0.5516
24774SOL     OW75762   1.789   7.049   4.798 -0.2134 -0.7171 -0.1266
24774SOL    HW175763   1.826   6.961   4.785  1.4151 -0.0425 -0.2552
24774SOL    HW275764   1.791   7.089   4.711  0.9159  0.1369  0.2759
24775SOL     OW75765   0.268   7.350   9.859  0.8995  0.1230  0.2389
24775SOL    HW175766   0.331   7.397   9.913  0.0294  1.6985 -0.0693
24775SOL    HW275767   0.192   7.408   9.853  0.6544 -0.3151 -2.0360
24776SOL     OW75768   4.830   7.131  10.180  0.5822  0.1576  0.1402
24776SOL    HW175769   4.873   7.056  10.221 -0.1620 -0.6292 -0.4928
24776SOL    HW275770   4.746   7.097  10.149  0.5675  1.0517 -0.8718
24777SOL     OW75771   3.043   6.256   2.425 -0.4996  0.4320 -0.4565
24777SOL    HW175772   3.032   6.258   2.330  0.5777  0.5075 -0.5989
24777SOL    HW275773   3.090   6.173   2.441 -0.7433  0.3858  0.0116
24778SOL     OW75774   1.127   0.773   3.514 -0.1295  0.0988  0.2738
24778SOL    HW175775   1.102   0.862   3.540 -0.3830  0.0617  0.1661
24778SOL    HW275776   1.207   0.784   3.464  0.1985  0.2016  0.8137
24779SOL     OW75777   5.129   7.759   3.059 -0.3603  0.0269  0.2292
24779SOL    HW175778   5.038   7.739   3.080 -0.2251 -0.1443  0.6733
24779SOL    HW275779   5.138   7.852   3.077 -0.0667 -0.2465  1.6723
24780SOL     OW75780   5.567   6.833   2.421 -0.0837 -0.1345  0.3374
24780SOL    HW175781   5.496   6.884   2.381 -0.9592 -0.8732  0.9226
24780SOL    HW275782   5.647   6.874   2.388 -0.7769  0.1868 -1.0148
24781SOL     OW75783   6.978   2.425   5.378 -0.7056  0.1254 -0.1330
24781SOL    HW175784   6.992   2.348   5.433 -1.4678  0.5774  0.7265
24781SOL    HW275785   7.065   2.466   5.372 -0.5243 -0.1698  0.3746
24782SOL     OW75786   1.930   4.091   6.992  0.0546  0.4244  0.3354
24782SOL    HW175787   1.972   4.176   6.978  2.7037 -0.7780  0.5624
24782SOL    HW275788   1.964   4.036   6.921 -0.0734 -0.9824  1.3417
24783SOL     OW75789   1.893   1.855   9.182 -0.0174 -0.2112 -0.0404
24783SOL    HW175790   1.962   1.908   9.143 -1.1245  0.6484 -0.9088
24783SOL    HW275791   1.933   1.815   9.259  1.3904  0.3694 -0.4522
24784SOL     OW75792   6.107   4.335   5.367  0.3024  0.3316 -0.2183
24784SOL    HW175793   6.163   4.288   5.428 -0.4395 -0.7790 -0.3550
24784SOL    HW275794   6.110   4.283   5.287 -3.2423 -1.5523  0.6564
24785SOL     OW75795   0.906   5.048   3.515 -0.0844 -0.8012  0.1901
24785SOL    HW175796   0.945   5.059   3.601  2.1231  0.5388 -0.9024
24785SOL    HW275797   0.936   4.961   3.486  1.6818 -0.0384 -0.3834
24786SOL     OW75798   1.621   4.909  10.523  0.2312 -0.0840 -0.2274
24786SOL    HW175799   1.707   4.868  10.516  0.0352 -1.2967  2.9469
24786SOL    HW275800   1.559   4.837  10.509 -0.1836  0.0486  0.8378
24787SOL     OW75801   7.626   4.528  10.574 -0.1340  0.0430 -0.1312
24787SOL    HW175802   7.664   4.486  10.651 -1.0905 -1.1791 -0.2852
24787SOL    HW275803   7.679   4.495  10.501  0.2801  0.5805 -0.0753
24788SOL     OW75804   5.212   0.491   2.543 -0.2410  0.0514  0.5064
24788SOL    HW175805   5.207   0.417   2.483  1.0258  0.5381 -0.2455
24788SOL    HW275806   5.294   0.535   2.519  0.4062  0.1642  2.6887
24789SOL     OW75807   6.933   5.269   0.188 -0.1441  0.5865 -0.2908
24789SOL    HW175808   6.889   5.320   0.256 -1.3463 -1.4557  0.5279
24789SOL    HW275809   6.981   5.201   0.236  1.1392  0.6838 -1.3730
24790SOL     OW75810   6.319   7.823  11.749  0.0191 -0.1740  0.5017
24790SOL    HW175811   6.359   7.862  11.827  1.8743 -1.3488  0.2034
24790SOL    HW275812   6.286   7.738  11.779 -2.1886  0.6684  0.6863
24791SOL     OW75813   1.333   5.338   8.240  0.0347 -0.0909  0.1869
24791SOL    HW175814   1.409   5.309   8.189 -0.0713 -0.0138 -0.0157
24791SOL    HW275815   1.371   5.379   8.318  0.2049  0.2516 -0.0763
24792SOL     OW75816   0.997   6.341   6.005  0.2194  0.1452  0.1583
24792SOL    HW175817   1.024   6.306   6.090 -1.1678 -0.3659  0.4145
24792SOL    HW275818   0.955   6.268   5.960 -0.1993  0.7377 -0.4445
24793SOL     OW75819   4.059   7.348  11.638 -0.0421  0.4550  0.3570
24793SOL    HW175820   4.138   7.392  11.671  1.5368 -1.6251 -0.4050
24793SOL    HW275821   4.072   7.256  11.661 -1.4445 -0.1945 -1.2676
24794SOL     OW75822   7.325   3.947   5.431 -0.5249  0.2185 -0.3878
24794SOL    HW175823   7.307   3.989   5.515 -0.1256  0.8745 -0.6156
24794SOL    HW275824   7.418   3.925   5.434 -0.8291 -1.1062 -0.0892
24795SOL     OW75825   5.634   7.889   6.341  0.1289  0.3179 -0.4086
24795SOL    HW175826   5.659   7.878   6.249  0.0580  1.9195 -0.6639
24795SOL    HW275827   5.715   7.915   6.385 -0.1657  1.2626 -0.3887
24796SOL     OW75828   1.148   0.146   6.823  0.5926 -0.3648 -0.3126
24796SOL    HW175829   1.116   0.189   6.744  1.5149 -1.6376 -1.4211
24796SOL    HW275830   1.082   0.080   6.843  0.9472 -0.8622 -0.7519
24797SOL     OW75831   2.800   3.241   1.095  0.5950  0.0135 -0.2352
24797SOL    HW175832   2.709   3.214   1.105  0.3872  0.6072 -0.5151
24797SOL    HW275833   2.820   3.226   1.003  0.8308 -0.2605 -0.1410
24798SOL     OW75834   5.331   2.941   6.723 -0.1573 -0.2635 -0.1155
24798SOL    HW175835   5.363   2.994   6.796  1.0230 -0.6065 -0.3560
24798SOL    HW275836   5.324   2.853   6.759 -3.2046  0.1681  0.6066
24799SOL     OW75837   0.989   5.862  11.117  0.2127 -0.6267 -0.1098
24799SOL    HW175838   1.074   5.818  11.117  0.8758  0.6207 -0.2806
24799SOL    HW275839   1.001   5.937  11.176 -1.2682 -1.3517  1.1758
24800SOL     OW75840   5.424   0.462  12.006  0.9248  0.7169  0.6334
24800SOL    HW175841   5.352   0.525  12.019 -0.4543 -1.1801  2.8965
24800SOL    HW275842   5.501   0.517  11.992 -0.2119  2.9309  2.4148
24801SOL     OW75843   1.791   2.728   0.180 -0.3374 -0.0789 -0.4120
24801SOL    HW175844   1.744   2.791   0.235 -2.2328 -0.6196 -1.3326
24801SOL    HW275845   1.747   2.645   0.196 -0.0771 -0.4988 -1.7617
24802SOL     OW75846   5.875   4.300  10.328  0.1785 -0.2087 -0.8040
24802SOL    HW175847   5.865   4.222  10.383 -0.6371 -0.4034 -1.2145
24802SOL    HW275848   5.851   4.373  10.386  0.3479 -0.3122 -0.6005
24803SOL     OW75849   0.902   6.144  11.807  0.0185  0.1159 -0.1432
24803SOL    HW175850   0.906   6.072  11.744 -1.1494 -0.9538  0.9338
24803SOL    HW275851   0.875   6.220  11.756 -1.1318 -0.7734 -0.9059
24804SOL     OW75852   0.535   7.335  11.719  0.6171  0.2736  0.1722
24804SOL    HW175853   0.528   7.274  11.645 -1.5128 -0.1222  0.6168
24804SOL    HW275854   0.629   7.345  11.734  1.0529 -2.1390 -0.5479
24805SOL     OW75855   7.204   1.920   4.130 -0.0092  0.4247 -0.2942
24805SOL    HW175856   7.136   1.852   4.128 -0.6318  1.0660 -1.6983
24805SOL    HW275857   7.283   1.873   4.158 -0.4279 -0.8791 -1.2013
24806SOL     OW75858   3.343   5.919   1.526 -0.2824 -0.1002 -0.2653
24806SOL    HW175859   3.377   5.995   1.572  1.1886 -0.6504 -0.3842
24806SOL    HW275860   3.288   5.874   1.591  0.1957  0.1622  0.3268
24807SOL     OW75861   7.052   6.399   0.204 -0.4503  0.4872 -0.4585
24807SOL    HW175862   6.981   6.462   0.191 -1.8790 -1.0157 -0.2444
24807SOL    HW275863   7.131   6.445   0.173 -1.4336  2.3335 -0.3498
24808SOL     OW75864   5.287   4.331   1.624  0.2473  0.1254 -0.2747
24808SOL    HW175865   5.225   4.371   1.563 -0.7312 -0.6691  0.1691
24808SOL    HW275866   5.271   4.376   1.707  1.0078  0.6373 -0.3935
24809SOL     OW75867   7.436   5.615   5.339  0.3699  0.4933  0.0842
24809SOL    HW175868   7.507   5.596   5.400  0.1869  0.1402  0.1908
24809SOL    HW275869   7.387   5.685   5.382 -1.6682 -1.8783  1.9686
24810SOL     OW75870   0.833   5.467   5.082  0.0068 -0.2637 -0.6410
24810SOL    HW175871   0.823   5.538   5.018 -0.2049  0.8932  0.6188
24810SOL    HW275872   0.889   5.504   5.150 -0.3844 -1.1949  0.2147
24811SOL     OW75873   6.358   1.065   8.947 -0.2689  0.2379  0.7452
24811SOL    HW175874   6.433   1.074   8.888 -0.1413 -0.5708  0.7704
24811SOL    HW275875   6.388   1.100   9.031 -0.0984  0.4191  0.6060
24812SOL     OW75876   0.092   5.460   4.243 -0.0996  0.1918  0.2963
24812SOL    HW175877   0.118   5.414   4.323  0.8401 -0.2950 -0.2660
24812SOL    HW275878   0.082   5.551   4.269 -1.6953 -0.2556  1.3783
24813SOL     OW75879   6.875   4.269   3.984 -0.1128 -0.3408 -0.0162
24813SOL    HW175880   6.917   4.203   3.929 -0.5884  1.2848 -2.5022
24813SOL    HW275881   6.817   4.316   3.925 -0.3586  1.8276  1.8021
24814SOL     OW75882   7.780   0.296   5.563  0.2504  0.6245  0.7827
24814SOL    HW175883   7.687   0.283   5.582  0.2744  1.2535  1.3592
24814SOL    HW275884   7.826   0.241   5.626  0.2593 -1.7234 -1.1516
24815SOL     OW75885   4.765   3.872   3.950 -0.2699  0.1365  0.0893
24815SOL    HW175886   4.789   3.857   3.859 -0.2103  0.8108 -0.0117
24815SOL    HW275887   4.679   3.832   3.959 -0.3399  0.1942 -0.3041
24816SOL     OW75888   6.013   5.944  10.371 -0.3427  0.2646  0.5439
24816SOL    HW175889   6.090   5.917  10.422 -0.4651 -1.0102  0.0913
24816SOL    HW275890   6.031   5.911  10.283  0.6217  3.7731 -0.7653
24817SOL     OW75891   2.529   2.688   3.739  0.1052  0.0286 -0.7395
24817SOL    HW175892   2.469   2.681   3.665 -0.1605 -1.2261 -0.4361
24817SOL    HW275893   2.481   2.649   3.812  1.4974 -1.6149 -0.6337
24818SOL     OW75894   6.073   7.863  11.929 -0.3000  0.6601 -0.3444
24818SOL    HW175895   6.120   7.946  11.938 -1.0615  1.0488  0.2554
24818SOL    HW275896   6.123   7.813  11.865  0.3067  1.4874 -0.5312
24819SOL     OW75897   2.578   6.329   4.940 -0.1748 -0.3555  0.6130
24819SOL    HW175898   2.541   6.257   4.991  1.0533 -1.0174  0.5972
24819SOL    HW275899   2.665   6.299   4.915 -0.5274  0.1851 -1.4260
24820SOL     OW75900   5.714   2.322   9.736 -0.1804 -0.0106 -0.3227
24820SOL    HW175901   5.703   2.270   9.815  0.6725 -0.7988 -0.6985
24820SOL    HW275902   5.625   2.345   9.709 -0.4642  2.5907  2.3006
24821SOL     OW75903   2.580   1.399   1.864  0.0389  0.1068  0.1039
24821SOL    HW175904   2.509   1.457   1.891  0.1808 -0.1468  1.0733
24821SOL    HW275905   2.638   1.455   1.813 -0.5147  0.4825 -0.1278
24822SOL     OW75906   3.274   4.042  11.868 -0.1195 -0.1764 -0.0724
24822SOL    HW175907   3.356   4.035  11.819 -0.5962  0.1710 -0.9389
24822SOL    HW275908   3.277   3.969  11.930  0.8390 -0.1706 -0.0938
24823SOL     OW75909   1.927   6.862   9.565 -0.4680  0.4636 -0.1278
24823SOL    HW175910   1.836   6.837   9.550 -0.8116  1.3900  0.3312
24823SOL    HW275911   1.970   6.780   9.590 -1.1842  0.0258 -0.2881
24824SOL     OW75912   4.350   0.153  11.269  0.2789  0.4401 -0.0994
24824SOL    HW175913   4.342   0.236  11.315 -0.4244  0.9535 -1.1019
24824SOL    HW275914   4.389   0.176  11.184 -0.2893 -0.1882 -0.5399
24825SOL     OW75915   6.467   4.880  11.213  0.2223 -0.0735 -0.5152
24825SOL    HW175916   6.393   4.861  11.271  0.6935 -1.0127 -0.2036
24825SOL    HW275917   6.446   4.833  11.132 -0.3704  1.1274 -1.0873
24826SOL     OW75918   1.893   7.513   6.173 -0.1133  0.1276 -0.1648
24826SOL    HW175919   1.853   7.554   6.096 -0.6951  2.0838  1.0841
24826SOL    HW275920   1.929   7.586   6.223 -0.7482 -0.9111  1.9670
24827SOL     OW75921   6.831   7.591  11.937  0.0004 -0.2068  0.3992
24827SOL    HW175922   6.900   7.527  11.917 -0.9435 -1.3161  0.5717
24827SOL    HW275923   6.872   7.676  11.922  1.4037 -0.8360  0.4851
24828SOL     OW75924   4.190   3.557  10.433 -0.0570 -0.0462  0.1211
24828SOL    HW175925   4.255   3.623  10.452 -1.7712  1.4792  0.9919
24828SOL    HW275926   4.212   3.526  10.345  2.2852 -0.2177  0.6990
24829SOL     OW75927   0.378   6.091   3.059  0.2182  0.2335  0.8401
24829SOL    HW175928   0.341   6.028   2.997  0.8233  0.9998 -0.3287
24829SOL    HW275929   0.341   6.175   3.033  1.6466  0.8011  0.5303
24830SOL     OW75930   7.492   7.017   8.370 -0.3725 -0.3862  0.2414
24830SOL    HW175931   7.449   7.092   8.412 -0.1477 -0.1300  0.0248
24830SOL    HW275932   7.462   6.941   8.419 -0.2186 -0.1027  0.7860
24831SOL     OW75933   7.348   4.233  10.031 -0.0751 -0.4563  0.1088
24831SOL    HW175934   7.288   4.174   9.986 -0.6817 -0.6723  1.1595
24831SOL    HW275935   7.430   4.184  10.038  0.5209  0.1118 -1.9853
24832SOL     OW75936   3.936   5.807   6.709  0.3128  0.8086  0.7600
24832SOL    HW175937   3.892   5.888   6.682  0.7530  0.5376 -0.9264
24832SOL    HW275938   3.866   5.751   6.742 -0.5318  0.7337 -1.0140
24833SOL     OW75939   4.452   2.135   2.194  0.4760 -1.4053  0.1142
24833SOL    HW175940   4.452   2.171   2.283  2.4028 -0.4991 -0.2189
24833SOL    HW275941   4.544   2.121   2.173  0.0234 -2.2047 -1.5315
24834SOL     OW75942   2.766   6.054  10.307 -0.0497  0.0424  0.3716
24834SOL    HW175943   2.774   5.971  10.259  2.5767  0.5028 -0.1515
24834SOL    HW275944   2.684   6.092  10.276  0.7690 -0.3909 -2.7206
24835SOL     OW75945   2.377   3.304   0.936  0.0454  0.0238 -0.3471
24835SOL    HW175946   2.446   3.238   0.943  1.0050  1.1314  2.8576
24835SOL    HW275947   2.331   3.283   0.855  0.6800 -4.1434  0.1334
24836SOL     OW75948   7.822   1.147   2.386  0.0709 -0.3378 -0.1466
24836SOL    HW175949   7.806   1.114   2.475  0.3563  0.1836  0.1062
24836SOL    HW275950   7.915   1.170   2.386 -0.2551  1.0995 -0.0888
24837SOL     OW75951   2.124   5.499   9.082  0.0648  0.0601 -0.3472
24837SOL    HW175952   2.183   5.571   9.101 -1.2051  1.5281 -1.7207
24837SOL    HW275953   2.180   5.433   9.039  1.5071 -0.4327  2.0986
24838SOL     OW75954   0.237   6.712   0.032  0.9608  0.1080  0.4137
24838SOL    HW175955   0.271   6.791  -0.010  0.1686 -0.4053 -1.2814
24838SOL    HW275956   0.315   6.667   0.065  1.6014  0.6745 -0.2843
24839SOL     OW75957   5.893   6.594  11.941  0.4482  0.5239 -0.3442
24839SOL    HW175958   5.898   6.581  11.846  2.4440 -2.2246  0.0289
24839SOL    HW275959   5.822   6.537  11.969  0.5099  0.5825 -0.0657
24840SOL     OW75960   7.375   0.839   4.788 -0.7553 -0.7565  0.0030
24840SOL    HW175961   7.390   0.860   4.696 -0.9648 -1.3236 -0.1648
24840SOL    HW275962   7.407   0.915   4.836 -3.5139  0.9881 -0.6795
24841SOL     OW75963   1.046   0.658   2.614  0.2945  0.5895  0.0928
24841SOL    HW175964   1.070   0.579   2.662  0.5474  0.0472 -0.8986
24841SOL    HW275965   1.126   0.683   2.567 -0.0038  0.9862 -0.2140
24842SOL     OW75966   2.315   7.872  10.440 -0.1365 -0.2964  0.0664
24842SOL    HW175967   2.227   7.836  10.453 -0.2363 -0.9731 -2.0201
24842SOL    HW275968   2.300   7.961  10.407 -0.0740 -0.6130 -0.8364
24843SOL     OW75969   0.290   4.939   2.650  0.0642 -0.3094  0.0778
24843SOL    HW175970   0.275   4.989   2.570  1.1962 -0.3236 -0.1734
24843SOL    HW275971   0.249   4.990   2.719 -0.3548  0.0417 -0.4242
24844SOL     OW75972   7.239   2.373   1.598 -0.3637 -0.0880 -0.0782
24844SOL    HW175973   7.206   2.299   1.547 -0.6231  0.1705 -0.2892
24844SOL    HW275974   7.203   2.360   1.685 -2.3442  1.0309 -0.6873
24845SOL     OW75975   4.591   2.133   3.334 -0.0061 -0.1451  0.3127
24845SOL    HW175976   4.526   2.131   3.263  1.5235  1.4909 -1.2405
24845SOL    HW275977   4.550   2.187   3.402 -0.2661  0.9727 -0.6993
24846SOL     OW75978   5.738   7.207   2.896  0.0006  0.1065  0.4485
24846SOL    HW175979   5.787   7.125   2.894  3.8569  2.1969 -0.4899
24846SOL    HW275980   5.753   7.242   2.984 -1.6846 -0.1132  0.8700
24847SOL     OW75981   5.835   7.825   2.956 -0.0983 -0.0255  0.3310
24847SOL    HW175982   5.765   7.808   2.892 -0.7915  0.5031  0.9290
24847SOL    HW275983   5.792   7.876   3.025  1.4720  2.7652 -0.5891
24848SOL     OW75984   6.318   4.966  11.885 -0.2460  0.2255  0.3060
24848SOL    HW175985   6.363   4.960  11.801  0.1246 -0.6349  0.5576
24848SOL    HW275986   6.247   4.902  11.879  0.4698 -0.6666  1.0534
24849SOL     OW75987   7.785   6.364   5.029 -0.1322  1.0376 -0.6755
24849SOL    HW175988   7.694   6.382   5.004 -0.9818  0.8302  1.9085
24849SOL    HW275989   7.811   6.440   5.081  0.6818  0.4977 -0.2697
24850SOL     OW75990   4.868   0.005   6.213 -0.2503  0.1803  0.0678
24850SOL    HW175991   4.908  -0.062   6.158  1.3240  0.9108  0.2661
24850SOL    HW275992   4.940   0.039   6.266 -1.2347  1.2422  0.7821
24851SOL     OW75993   2.228   6.754   0.132  0.1046  0.5622 -0.0712
24851SOL    HW175994   2.322   6.764   0.148  0.0739  0.5209  0.1352
24851SOL    HW275995   2.213   6.798   0.048  0.7123 -1.5110 -1.3186
24852SOL     OW75996   1.111   3.420  11.198  0.1441  0.0947 -0.0615
24852SOL    HW175997   1.113   3.324  11.203 -0.5721  0.1368  1.8661
24852SOL    HW275998   1.052   3.439  11.125 -1.1555 -0.9585  0.6667
24853SOL     OW75999   0.584   2.174   2.705  0.1536  0.4946  0.1025
24853SOL    HW176000   0.613   2.084   2.686 -1.0317 -0.0369  0.6838
24853SOL    HW276001   0.649   2.230   2.661  1.3588 -0.6276  0.3840
24854SOL     OW76002   4.097   0.980   9.499 -0.5653  0.4480 -0.4215
24854SOL    HW176003   4.122   0.901   9.451  0.1350  0.3702  0.0539
24854SOL    HW276004   4.174   1.001   9.552 -0.3441  2.0374 -1.2954
24855SOL     OW76005   2.628   0.375   4.909 -0.1253 -0.2566  0.1406
24855SOL    HW176006   2.646   0.284   4.933  2.1084  0.0805 -0.0495
24855SOL    HW276007   2.578   0.410   4.982 -0.6436 -1.5002  0.4113
24856SOL     OW76008   1.618   2.249   8.654  0.3667 -0.0864 -0.1303
24856SOL    HW176009   1.608   2.184   8.724 -0.2396 -0.2019 -0.3128
24856SOL    HW276010   1.583   2.205   8.576 -2.2816  1.2211  0.1962
24857SOL     OW76011   5.840   2.675   1.405  0.2894 -0.6491  0.1795
24857SOL    HW176012   5.920   2.724   1.423  0.4149 -1.1340  0.9675
24857SOL    HW276013   5.777   2.741   1.378  1.7764 -0.4830 -3.6530
24858SOL     OW76014   2.313   2.703  10.991 -0.9833 -0.3280  0.3991
24858SOL    HW176015   2.277   2.615  10.979 -2.1698  0.0517  1.0181
24858SOL    HW276016   2.288   2.750  10.911  1.4359 -1.0862 -0.8839
24859SOL     OW76017   4.942   6.078   8.425  0.2013  1.1356 -0.4355
24859SOL    HW176018   4.935   6.040   8.337  0.6431  0.7449 -0.3027
24859SOL    HW276019   4.873   6.145   8.427  0.4923  1.4687 -1.2396
24860SOL     OW76020   7.693   1.258   7.792  0.5465  0.0409  0.0868
24860SOL    HW176021   7.604   1.237   7.767  0.6476 -1.0620  0.5482
24860SOL    HW276022   7.715   1.192   7.858  1.8123  0.0729 -0.2670
24861SOL     OW76023   3.017   5.410   7.542  0.6147 -0.1565  0.0529
24861SOL    HW176024   2.966   5.420   7.462  1.8185  0.5494 -0.6530
24861SOL    HW276025   2.968   5.458   7.608 -0.4434 -0.8326 -0.2271
24862SOL     OW76026   0.943   5.125   4.591 -0.2303 -0.2050 -0.2208
24862SOL    HW176027   0.992   5.192   4.544 -1.5098  1.2641  0.4611
24862SOL    HW276028   0.863   5.113   4.540 -1.4600  1.1299  1.2861
24863SOL     OW76029   3.548   1.983  10.621  0.0805 -0.4027  0.0733
24863SOL    HW176030   3.628   1.955  10.666 -0.4614 -1.8180  0.2001
24863SOL    HW276031   3.477   1.959  10.681 -0.5168 -0.2873 -0.5757
24864SOL     OW76032   1.917   4.373   3.667  0.0221 -0.5169  0.5028
24864SOL    HW176033   1.916   4.286   3.629  1.7696  0.0727 -1.0153
24864SOL    HW276034   1.840   4.417   3.630  0.5110 -0.6400 -0.6829
24865SOL     OW76035   4.721   4.483  11.576 -0.4734  0.5686  0.1059
24865SOL    HW176036   4.687   4.564  11.538 -3.8447 -0.9152 -0.4106
24865SOL    HW276037   4.752   4.433  11.500 -0.1151  0.5982  0.2278
24866SOL     OW76038   5.763   4.289  11.695  0.1158 -0.3380  0.2006
24866SOL    HW176039   5.858   4.284  11.688  0.1195 -2.7303  0.9944
24866SOL    HW276040   5.747   4.329  11.781  0.4220 -0.3498  0.2636
24867SOL     OW76041   5.039   1.364   1.486  0.3949 -0.2898  0.2562
24867SOL    HW176042   5.087   1.372   1.569 -0.5114 -0.0210  0.7730
24867SOL    HW276043   5.062   1.444   1.438  0.7554 -0.3411  0.3404
24868SOL     OW76044   4.960   7.111   0.190  0.3333 -0.5860 -0.3002
24868SOL    HW176045   4.939   7.199   0.159  1.3009 -0.1256  0.3058
24868SOL    HW276046   5.017   7.125   0.265  1.2518 -1.7480 -0.7560
24869SOL     OW76047   0.586   3.827   5.611 -0.3809 -0.5293 -0.5643
24869SOL    HW176048   0.675   3.831   5.575  1.3021  1.1098  3.2795
24869SOL    HW276049   0.597   3.792   5.700 -3.4037  0.9482  0.5306
24870SOL     OW76050   5.166   1.708   3.998  0.4715  0.1981  0.5425
24870SOL    HW176051   5.129   1.730   3.912  0.6845  1.2574  0.7030
24870SOL    HW276052   5.108   1.641   4.033  0.5385 -0.4517 -0.5453
24871SOL     OW76053   6.744   0.720   4.171  0.2445  0.3636  0.0750
24871SOL    HW176054   6.682   0.767   4.115 -0.2922 -0.4251 -0.0201
24871SOL    HW276055   6.702   0.717   4.256  1.1115  1.6601  0.5788
24872SOL     OW76056   2.459   0.526   9.895 -0.0570 -0.3159  0.3370
24872SOL    HW176057   2.552   0.527   9.871 -0.0951  3.1000 -0.0727
24872SOL    HW276058   2.456   0.470   9.973  2.5236  0.2664  0.9687
24873SOL     OW76059   0.364   6.174   9.650 -0.4626 -0.1445 -0.1311
24873SOL    HW176060   0.309   6.158   9.573 -1.4601  1.4476  0.2044
24873SOL    HW276061   0.335   6.109   9.714 -2.9604  1.4813  0.5017
24874SOL     OW76062   5.148   2.270   2.344 -0.0365  0.6996 -0.4418
24874SOL    HW176063   5.229   2.254   2.393  0.8709  0.3869 -1.9805
24874SOL    HW276064   5.175   2.323   2.270 -0.7751 -1.3813 -2.3000
24875SOL     OW76065   3.085   5.282   7.790  0.2028 -0.2380 -0.3843
24875SOL    HW176066   3.140   5.310   7.863 -1.4817  0.8513  0.5153
24875SOL    HW276067   3.123   5.325   7.714  0.3704  0.8257  0.2810
24876SOL     OW76068   4.237   6.324   0.865  0.2909  0.1604  0.4342
24876SOL    HW176069   4.254   6.281   0.781 -0.9854  1.2266 -0.4154
24876SOL    HW276070   4.272   6.264   0.931  0.3531 -1.2099 -0.8090
24877SOL     OW76071   7.489   7.673  10.445  0.1389  0.3703 -0.0447
24877SOL    HW176072   7.493   7.654  10.351  0.5037  0.6588 -0.0894
24877SOL    HW276073   7.453   7.593  10.484 -1.0676  0.6445 -0.5469
24878SOL     OW76074   0.331   6.437   8.483 -0.3478 -0.1853  0.3646
24878SOL    HW176075   0.399   6.485   8.435 -0.8390  0.7840  0.6278
24878SOL    HW276076   0.329   6.351   8.441 -0.1415  0.3412 -0.7593
24879SOL     OW76077   0.120   6.025  11.171 -0.1925 -0.4881  0.2823
24879SOL    HW176078   0.089   6.028  11.261  1.0648 -0.7737  0.7394
24879SOL    HW276079   0.063   6.086  11.124 -1.0385 -0.5461  1.1937
24880SOL     OW76080   3.116   1.852   4.688  0.1759  0.5084  0.2352
24880SOL    HW176081   3.049   1.902   4.642 -1.1755 -0.3298  1.2059
24880SOL    HW276082   3.068   1.801   4.753  1.8468  0.5439  1.5899
24881SOL     OW76083   4.117   4.163   6.339  0.4691 -0.8405  0.6180
24881SOL    HW176084   4.093   4.205   6.422 -0.9021 -0.7769  0.2110
24881SOL    HW276085   4.203   4.200   6.318  0.0774  0.4372  1.1596
24882SOL     OW76086   1.098   4.734   1.544  0.4606  0.0575 -0.1517
24882SOL    HW176087   1.103   4.828   1.560 -1.2802  0.3278 -1.0236
24882SOL    HW276088   1.143   4.722   1.460 -0.4942  0.3396 -0.7228
24883SOL     OW76089   0.495   5.574   3.204 -0.3673  0.1117  0.2168
24883SOL    HW176090   0.554   5.641   3.240 -0.3471  0.4169 -0.3772
24883SOL    HW276091   0.505   5.582   3.109 -0.4347 -0.6748  0.1389
24884SOL     OW76092   1.487   7.594   1.093 -0.3113 -0.0709  0.1324
24884SOL    HW176093   1.436   7.555   1.165  1.2613  0.2583  1.4800
24884SOL    HW276094   1.529   7.670   1.133  1.0516 -0.2079 -0.9806
24885SOL     OW76095   2.276   4.391   0.169  0.2024 -0.1140 -0.0433
24885SOL    HW176096   2.336   4.438   0.111 -0.1247 -0.0737 -0.3563
24885SOL    HW276097   2.198   4.378   0.116  0.4994 -1.5527 -0.1742
24886SOL     OW76098   2.283   0.554  11.539  0.2190  0.0954  0.0048
24886SOL    HW176099   2.197   0.512  11.544 -0.0707  0.7704  0.7585
24886SOL    HW276100   2.301   0.584  11.627  1.4831 -0.5019 -0.0214
24887SOL     OW76101   3.888   7.133   3.744  0.0780  0.2256 -0.2230
24887SOL    HW176102   3.846   7.207   3.787 -0.2901  0.0922 -0.3447
24887SOL    HW276103   3.865   7.058   3.798 -1.1975 -0.0931 -1.1411
24888SOL     OW76104   7.612   5.750   9.445  0.0425 -0.2942  0.2294
24888SOL    HW176105   7.583   5.783   9.530  1.8228 -0.3818  0.9137
24888SOL    HW276106   7.599   5.656   9.450  1.3523 -0.4678  0.9577
24889SOL     OW76107   6.896   1.980   3.110 -0.0703  0.0315 -0.0047
24889SOL    HW176108   6.980   1.961   3.152 -0.2922  0.9230  0.8886
24889SOL    HW276109   6.832   1.933   3.165 -0.3538  1.1188  0.6240
24890SOL     OW76110   6.657   6.524   2.673  0.6395  0.3777  0.2490
24890SOL    HW176111   6.647   6.491   2.583 -1.7243  0.4177  0.4356
24890SOL    HW276112   6.641   6.619   2.665  0.0734  0.3303  0.7266
24891SOL     OW76113   0.445   3.816   5.049  0.0688 -0.4174 -0.4011
24891SOL    HW176114   0.394   3.735   5.050  0.3411 -0.6685  2.4362
24891SOL    HW276115   0.534   3.788   5.026 -0.2076 -0.6069 -1.2785
24892SOL     OW76116   0.803   0.503  12.409  0.0439  0.1028 -0.2070
24892SOL    HW176117   0.712   0.531  12.398  0.5742  1.5827 -1.1733
24892SOL    HW276118   0.797   0.410  12.431 -1.7077  0.2581  0.1478
24893SOL     OW76119   2.674   4.290   6.899 -0.0408  0.5274  0.2381
24893SOL    HW176120   2.719   4.359   6.850 -0.3373  1.1286  0.7981
24893SOL    HW276121   2.740   4.254   6.958  0.2218  0.0429 -0.3357
24894SOL     OW76122   5.323   2.140  11.683  0.5262  0.5860  0.2182
24894SOL    HW176123   5.378   2.191  11.623 -1.8229  1.6068 -1.2122
24894SOL    HW276124   5.292   2.204  11.747  0.2815  0.2197  0.4695
24895SOL     OW76125   5.777   0.847   0.739  0.4312 -0.0299 -0.4271
24895SOL    HW176126   5.740   0.775   0.687 -0.0300 -0.0676 -0.0469
24895SOL    HW276127   5.703   0.904   0.758  0.5501 -0.1545  0.4156
24896SOL     OW76128   1.832   2.954   4.226  0.5430  0.3898  0.9045
24896SOL    HW176129   1.872   2.921   4.306  0.0911 -0.1244  0.9241
24896SOL    HW276130   1.877   2.906   4.156 -1.7956 -2.2140  1.0200
24897SOL     OW76131   5.157   2.960  10.325 -0.3520 -0.1278  0.0257
24897SOL    HW176132   5.158   2.868  10.296  2.6581 -0.9419  2.2107
24897SOL    HW276133   5.131   2.956  10.417 -1.6924  1.4613 -0.2423
24898SOL     OW76134   0.154   2.685   3.147  0.4833 -0.3415 -0.3145
24898SOL    HW176135   0.124   2.692   3.237  1.5668  0.4079  0.0084
24898SOL    HW276136   0.236   2.635   3.153  1.3722  1.0155 -0.6749
24899SOL     OW76137   4.922   5.682   2.625 -0.0287 -0.5126 -0.1515
24899SOL    HW176138   4.945   5.633   2.704  1.0997 -0.6786 -0.5695
24899SOL    HW276139   4.993   5.664   2.564 -0.6422  0.0060 -1.0408
24900SOL     OW76140   1.853   7.073   4.533 -0.1359 -0.5256 -0.3326
24900SOL    HW176141   1.896   7.157   4.549 -1.5989  0.6149 -2.0199
24900SOL    HW276142   1.906   7.031   4.466 -0.3624 -0.1486 -0.7523
24901SOL     OW76143   4.671   4.726  10.327  0.2416  0.6019  0.0548
24901SOL    HW176144   4.591   4.714  10.276  1.6890  0.4169 -2.3080
24901SOL    HW276145   4.645   4.706  10.417 -1.9772 -1.0133 -0.8556
24902SOL     OW76146   7.934   1.349   9.436 -0.8306  0.5398  0.4971
24902SOL    HW176147   7.843   1.322   9.442 -1.1941  2.0253  3.7888
24902SOL    HW276148   7.935   1.415   9.366 -2.2284  0.4158  0.3319
24903SOL     OW76149   7.561   1.520   9.344 -0.0736  0.1167  0.0603
24903SOL    HW176150   7.571   1.501   9.250  1.1607 -1.3690  0.4629
24903SOL    HW276151   7.559   1.616   9.348  2.2273  0.3121 -1.3118
24904SOL     OW76152   6.249   0.023   1.855  0.5647 -0.4099 -0.1805
24904SOL    HW176153   6.298  -0.001   1.776 -1.3894 -0.9086 -1.2806
24904SOL    HW276154   6.251   0.119   1.855  1.9867 -0.4158  0.1086
24905SOL     OW76155   5.735   5.707   6.808 -0.7181  0.1311  0.3282
24905SOL    HW176156   5.805   5.654   6.847 -1.1773 -1.5924 -1.0800
24905SOL    HW276157   5.656   5.683   6.857 -1.2093 -1.6982 -1.2514
24906SOL     OW76158   2.810   3.680   9.050  0.8361  0.1190  0.2039
24906SOL    HW176159   2.863   3.748   9.008 -0.4035 -0.9009 -3.3268
24906SOL    HW276160   2.847   3.673   9.138  3.2008  2.9557 -0.3860
24907SOL     OW76161   4.250   1.113   1.782 -0.2363 -0.2252  0.0473
24907SOL    HW176162   4.291   1.036   1.743 -1.0293  0.0407 -1.3825
24907SOL    HW276163   4.158   1.090   1.791 -1.0995  1.4439 -3.0734
24908SOL     OW76164   2.606   3.384   5.876  0.5524  0.0570  0.0703
24908SOL    HW176165   2.678   3.440   5.848 -0.0750  1.6180  1.3745
24908SOL    HW276166   2.533   3.409   5.821  0.4918 -0.0977  0.0802
24909SOL     OW76167   6.848   6.868   8.600 -0.0487 -0.3275  0.4875
24909SOL    HW176168   6.808   6.792   8.643  1.7248 -1.9396 -0.5809
24909SOL    HW276169   6.942   6.853   8.607  0.3814  2.1290  0.7832
24910SOL     OW76170   5.052   2.309   6.621  0.1832 -0.5437 -0.0235
24910SOL    HW176171   5.057   2.380   6.557  0.4098 -0.4676  0.0773
24910SOL    HW276172   5.082   2.349   6.703 -1.2670 -0.3059  0.4203
24911SOL     OW76173   3.094   6.032   0.436  0.5269 -0.3451  0.1551
24911SOL    HW176174   3.000   6.043   0.427  0.5660 -0.1798 -0.0520
24911SOL    HW276175   3.108   5.938   0.422  0.4533 -0.2820 -0.3416
24912SOL     OW76176   6.005   2.232   6.481 -0.3314  0.0460 -0.1532
24912SOL    HW176177   6.098   2.231   6.501 -0.4035 -0.2860  0.1859
24912SOL    HW276178   5.962   2.233   6.567 -0.6361  1.6557 -0.2972
24913SOL     OW76179   6.332   7.955   0.542  0.3251  0.1256 -0.1335
24913SOL    HW176180   6.332   8.017   0.468  0.1870  1.8053  1.2084
24913SOL    HW276181   6.387   7.997   0.608 -1.6426 -0.0743  1.7114
24914SOL     OW76182   2.894   2.442   4.110 -0.0986 -0.1104 -0.0425
24914SOL    HW176183   2.922   2.532   4.090 -1.0157  0.4816  1.2184
24914SOL    HW276184   2.943   2.418   4.188 -0.7596 -0.2558  0.3290
24915SOL     OW76185   2.236   2.864  11.460 -0.4325  0.2115 -0.5678
24915SOL    HW176186   2.201   2.924  11.526  0.0947  0.6699 -0.7057
24915SOL    HW276187   2.263   2.787  11.511 -1.6806 -0.1775 -0.4659
24916SOL     OW76188   5.109   7.422   3.552 -0.4905  0.1368 -0.3599
24916SOL    HW176189   5.099   7.351   3.490 -1.0107 -1.1204  1.0914
24916SOL    HW276190   5.038   7.410   3.615 -0.2080  1.5606  0.2775
24917SOL     OW76191   0.210   7.820   9.896 -0.6347  0.0727 -0.3391
24917SOL    HW176192   0.267   7.893   9.876  1.2774 -1.6113 -1.4108
24917SOL    HW276193   0.227   7.801   9.989  1.5206 -1.1224 -0.9163
24918SOL     OW76194   3.632   7.826  11.240 -0.4745 -0.0483  0.4237
24918SOL    HW176195   3.559   7.881  11.271 -0.9879  0.1758 -1.0855
24918SOL    HW276196   3.590   7.745  11.210 -0.2056  0.2893 -0.9512
24919SOL     OW76197   7.877   7.726   7.239 -0.1238 -0.8114 -1.1723
24919SOL    HW176198   7.911   7.636   7.244  2.4801  0.1294  0.2055
24919SOL    HW276199   7.881   7.747   7.146 -0.4345 -2.0043 -1.4734
24920SOL     OW76200   6.954   3.452  10.437 -0.3468 -0.0808 -0.1198
24920SOL    HW176201   6.979   3.360  10.428  1.0302  0.3602 -1.1918
24920SOL    HW276202   6.937   3.481  10.347 -1.7447  0.4722  0.2928
24921SOL     OW76203   0.885   1.466   7.713 -0.0477 -0.2058 -0.4490
24921SOL    HW176204   0.960   1.407   7.702 -0.0181 -0.0219 -1.2928
24921SOL    HW276205   0.899   1.535   7.649 -1.3931 -0.6518 -1.2616
24922SOL     OW76206   0.009   1.581   5.360  0.3582  0.4502  0.5459
24922SOL    HW176207  -0.077   1.597   5.322  0.9358  3.0040  0.1267
24922SOL    HW276208   0.055   1.529   5.294 -1.3222 -2.5644  1.5308
24923SOL     OW76209   5.201   3.848   7.093  0.4598  0.4342 -0.2445
24923SOL    HW176210   5.251   3.892   7.161 -0.7417 -0.5402  1.3351
24923SOL    HW276211   5.131   3.910   7.071  0.4299  0.4560 -0.0855
24924SOL     OW76212   5.537   6.692   0.564 -0.1631 -0.1115 -0.4780
24924SOL    HW176213   5.564   6.606   0.531  0.2546 -0.2505  0.2048
24924SOL    HW276214   5.493   6.672   0.647  0.9814  0.4145  0.2799
24925SOL     OW76215   6.573   0.473   2.368 -0.0321 -0.3080  0.3422
24925SOL    HW176216   6.576   0.562   2.333  2.9547 -0.5353 -0.1873
24925SOL    HW276217   6.627   0.421   2.309 -1.0400 -2.3482  1.1054
24926SOL     OW76218   2.015   5.192   3.548 -0.3058 -0.2548  0.3456
24926SOL    HW176219   2.046   5.283   3.544  0.0384 -0.2054  2.8149
24926SOL    HW276220   2.003   5.175   3.641 -1.7769 -2.3033 -0.1594
24927SOL     OW76221   4.005   3.491   2.541  0.3185  0.6373 -0.0254
24927SOL    HW176222   4.020   3.566   2.598  1.3359 -0.1060  0.7298
24927SOL    HW276223   4.075   3.430   2.563 -1.3218 -1.1607  0.4291
24928SOL     OW76224   5.208   6.512  11.308 -0.0120  0.1881  0.0769
24928SOL    HW176225   5.132   6.569  11.299  0.3487  0.6342 -0.2336
24928SOL    HW276226   5.242   6.503  11.219 -0.0832 -0.5396  0.1217
24929SOL     OW76227   2.746   4.625   0.163  0.3930  0.0780 -0.4774
24929SOL    HW176228   2.753   4.592   0.252 -3.1518 -1.6823 -0.6544
24929SOL    HW276229   2.723   4.718   0.173  2.4997  0.5679  0.2723
24930SOL     OW76230   0.522   1.045   7.521 -0.4190 -0.8828  0.1631
24930SOL    HW176231   0.531   1.102   7.597 -1.4494 -2.2925  1.3923
24930SOL    HW276232   0.444   1.078   7.476  0.3860  0.1671 -0.5219
24931SOL     OW76233   6.563   6.473   2.120 -0.0462  0.0832  0.1811
24931SOL    HW176234   6.488   6.532   2.123  0.3800  0.6047  2.4104
24931SOL    HW276235   6.528   6.392   2.082 -1.7496  0.3247  1.1116
24932SOL     OW76236   2.541   2.224   9.961 -0.0997  0.1106 -0.5850
24932SOL    HW176237   2.498   2.145   9.929 -0.2157  0.5435 -1.5117
24932SOL    HW276238   2.492   2.296   9.922 -0.2785  0.6656  0.6058
24933SOL     OW76239   7.244   6.941  10.270 -0.1597  0.6143 -0.1501
24933SOL    HW176240   7.309   6.998  10.228  0.7868 -0.5799 -0.3680
24933SOL    HW276241   7.169   6.941  10.210  0.6234  0.0545 -1.1585
24934SOL     OW76242   0.404   3.358   1.021 -0.0123 -0.2431 -0.1877
24934SOL    HW176243   0.401   3.435   0.965 -1.6159 -0.8709 -1.0548
24934SOL    HW276244   0.478   3.307   0.989  1.6479  1.2888  0.9822
24935SOL     OW76245   5.576   6.608   9.075 -0.0226  0.4810  0.2753
24935SOL    HW176246   5.510   6.542   9.056  1.7715 -1.4867  0.4200
24935SOL    HW276247   5.605   6.639   8.989 -0.4007  0.5861  0.1849
24936SOL     OW76248   3.890   0.178   2.973 -0.3263 -0.2262  0.6393
24936SOL    HW176249   3.855   0.232   2.902 -1.1754 -1.4866  0.0546
24936SOL    HW276250   3.871   0.227   3.053  0.9053  1.3599  0.0133
24937SOL     OW76251   4.094   5.647  10.764 -0.0089 -0.8733 -0.4634
24937SOL    HW176252   4.161   5.637  10.697  0.3224 -1.1413 -0.0966
24937SOL    HW276253   4.011   5.632  10.718 -0.0949  2.2794 -1.5937
24938SOL     OW76254   3.319   2.943   2.974 -0.4279 -0.1606  0.1060
24938SOL    HW176255   3.365   2.867   3.009  0.3601 -0.8423 -2.2637
24938SOL    HW276256   3.386   3.012   2.970 -0.8264  0.3082  1.0270
24939SOL     OW76257   6.829   7.136  10.187 -0.5568 -0.4805  0.0012
24939SOL    HW176258   6.852   7.180  10.269  0.9610 -0.6330 -0.3222
24939SOL    HW276259   6.830   7.205  10.121 -2.3375 -0.2492  0.1690
24940SOL     OW76260   3.927   1.034  11.985 -0.3290  0.2316  0.3940
24940SOL    HW176261   3.912   0.939  11.984 -0.8298  0.2821  1.7321
24940SOL    HW276262   3.968   1.052  11.900 -1.3405 -0.9943 -0.4051
24941SOL     OW76263   3.452   6.821   2.150 -0.3893  0.7404 -0.0834
24941SOL    HW176264   3.504   6.789   2.076 -1.0191  0.9133 -0.6060
24941SOL    HW276265   3.456   6.750   2.214  0.4151  0.7163 -0.1499
24942SOL     OW76266   5.726   3.115   6.962  0.5352  0.2544  0.6911
24942SOL    HW176267   5.714   3.029   6.923  0.7045 -0.4323  2.0945
24942SOL    HW276268   5.724   3.099   7.057  1.2126  1.7018  0.9741
24943SOL     OW76269   3.536   1.172   1.119 -0.2044  0.1980 -0.3080
24943SOL    HW176270   3.591   1.200   1.046 -1.6201  1.2490 -1.0095
24943SOL    HW276271   3.572   1.217   1.195  1.1119 -0.6913 -0.3623
24944SOL     OW76272   2.222   1.748  10.214 -0.0053 -0.1161  0.5722
24944SOL    HW176273   2.298   1.802  10.193 -0.6182  0.5902  0.1052
24944SOL    HW276274   2.237   1.665  10.169 -0.2452  0.5846 -0.8577
24945SOL     OW76275   2.194   1.789   8.154 -0.5082 -0.1301 -0.4798
24945SOL    HW176276   2.195   1.830   8.240  0.2623  0.5955 -0.8134
24945SOL    HW276277   2.287   1.776   8.132 -0.5846  1.3820 -1.9498
24946SOL     OW76278   0.313   2.517   3.876 -0.4131 -0.1535 -0.2568
24946SOL    HW176279   0.245   2.485   3.935  0.7291  1.1314  1.8958
24946SOL    HW276280   0.278   2.600   3.842  0.5179  1.2053  1.9114
24947SOL     OW76281   5.897   2.933  10.648 -0.6150 -0.6300  0.0009
24947SOL    HW176282   5.839   2.866  10.683 -2.2015  0.2756 -0.7839
24947SOL    HW276283   5.964   2.944  10.715 -1.5260 -1.4767  1.0975
24948SOL     OW76284   5.653   3.098   9.483  0.2892  0.1646  0.2640
24948SOL    HW176285   5.688   3.036   9.546  0.3845 -1.9374 -1.7321
24948SOL    HW276286   5.566   3.065   9.462 -0.5133  1.8941  0.6338
24949SOL     OW76287   1.012   0.557   3.633 -0.1034  0.1855 -0.8356
24949SOL    HW176288   1.037   0.644   3.602  0.4989  0.4380  0.2875
24949SOL    HW276289   1.087   0.502   3.612 -0.2705  0.0568 -1.0873
24950SOL     OW76290   6.112   0.717   9.363  0.3868 -0.1496  0.0753
24950SOL    HW176291   6.193   0.677   9.331 -0.5877 -0.6290 -1.9553
24950SOL    HW276292   6.105   0.687   9.454  3.7438  1.9714  1.2135
24951SOL     OW76293   5.308   7.639   6.052 -0.2146  0.8114 -0.1135
24951SOL    HW176294   5.226   7.591   6.045 -0.4628  1.2196 -0.0484
24951SOL    HW276295   5.359   7.591   6.116 -1.1523  1.6092  1.2788
24952SOL     OW76296   6.475   0.897   6.159 -0.1901 -0.0718 -0.4138
24952SOL    HW176297   6.492   0.803   6.169  1.5571  0.2186 -0.3271
24952SOL    HW276298   6.446   0.925   6.245  1.3854 -0.1504  0.1664
24953SOL     OW76299   0.267   3.271   6.407 -0.6105 -0.4275 -0.3316
24953SOL    HW176300   0.211   3.339   6.368 -0.7465 -0.5189 -0.2971
24953SOL    HW276301   0.216   3.190   6.398 -0.7563 -0.4082  0.2609
24954SOL     OW76302   2.600   4.719   0.655  0.2706 -0.2851  0.5248
24954SOL    HW176303   2.639   4.746   0.572  1.6445 -0.1664  1.1911
24954SOL    HW276304   2.511   4.755   0.652  0.6384  0.5930 -0.4514
24955SOL     OW76305   0.097   3.156   2.732  0.3235 -0.2532  0.0551
24955SOL    HW176306   0.039   3.123   2.801 -0.6137 -1.3432 -1.2050
24955SOL    HW276307   0.138   3.078   2.696  2.0970  0.4456  0.4462
24956SOL     OW76308   7.496   6.763   8.538 -0.6302 -0.7002  0.3048
24956SOL    HW176309   7.561   6.699   8.510  0.5905  0.2592  0.8392
24956SOL    HW276310   7.541   6.815   8.605 -1.5898  0.6837 -0.0854
24957SOL     OW76311   5.938   7.348   2.138  0.1062 -0.1190 -0.0089
24957SOL    HW176312   5.927   7.398   2.219 -0.1248 -0.9751  0.5084
24957SOL    HW276313   5.950   7.414   2.070  0.1195  0.6221  0.6969
24958SOL     OW76314   1.054   1.994   0.494  0.2848 -0.6819  0.3233
24958SOL    HW176315   1.024   1.975   0.583 -1.3306 -1.0518 -0.2635
24958SOL    HW276316   1.112   1.921   0.472  2.6909  0.6074  1.8825
24959SOL     OW76317   6.968   3.461   3.638 -0.2769 -0.2647 -0.4266
24959SOL    HW176318   6.997   3.398   3.572 -0.3424  0.2397 -0.9441
24959SOL    HW276319   6.984   3.547   3.598  1.5404  0.1148  0.9863
24960SOL     OW76320   1.649   2.538  11.656  1.1447 -0.0781  0.5091
24960SOL    HW176321   1.733   2.493  11.665  1.1908 -0.3672 -1.1390
24960SOL    HW276322   1.626   2.529  11.564 -0.4886  0.3920  0.8339
24961SOL     OW76323   2.648   4.700   9.853 -0.0746  0.2847 -0.3256
24961SOL    HW176324   2.664   4.611   9.884  1.7048  0.3089 -1.0180
24961SOL    HW276325   2.729   4.747   9.873 -1.3871  2.0984  1.0902
24962SOL     OW76326   6.274   6.506   3.394  0.2163  0.0230  0.1235
24962SOL    HW176327   6.286   6.495   3.488 -0.2074 -0.9043  0.0838
24962SOL    HW276328   6.225   6.587   3.385  0.9217  0.5151  0.6497
24963SOL     OW76329   4.048   7.287   0.490 -0.6494 -0.0815 -0.2768
24963SOL    HW176330   4.013   7.365   0.532 -0.3556  0.1013 -0.3677
24963SOL    HW276331   4.066   7.226   0.562 -0.8892 -0.0697 -0.2076
24964SOL     OW76332   7.921   0.920   6.692 -0.3046  0.0858 -0.2739
24964SOL    HW176333   7.896   1.005   6.655  0.7215  1.3976  1.8803
24964SOL    HW276334   7.867   0.911   6.770  1.9865  0.4792  1.4793
24965SOL     OW76335   5.081   5.935   5.980 -0.8724 -0.2285  0.3286
24965SOL    HW176336   5.021   6.009   5.993  0.1151  0.6212  0.2155
24965SOL    HW276337   5.055   5.898   5.895  0.8619  2.2394 -1.4010
24966SOL     OW76338   1.958   5.566   8.210  0.2917 -0.5247  0.3745
24966SOL    HW176339   2.050   5.567   8.184 -0.0271 -1.2442 -0.8852
24966SOL    HW276340   1.944   5.478   8.245  0.5285  0.1961  2.3780
24967SOL     OW76341   7.913   6.041  10.750  0.2215 -0.6402 -0.5412
24967SOL    HW176342   7.960   6.070  10.828 -0.5400 -2.2970  0.5871
24967SOL    HW276343   7.824   6.073  10.763  0.4440  0.4801 -1.5552
24968SOL     OW76344   6.044   4.778  10.427 -0.1278 -0.3324  0.0145
24968SOL    HW176345   6.101   4.850  10.400  0.6366 -0.6941  0.6468
24968SOL    HW276346   6.098   4.699  10.417  0.5737 -0.4217  3.4769
24969SOL     OW76347   3.358   0.254   7.535  0.1758  0.0432  0.0617
24969SOL    HW176348   3.400   0.306   7.604 -0.7501  2.5132 -1.1185
24969SOL    HW276349   3.431   0.208   7.492  0.9282 -0.3400  1.6612
24970SOL     OW76350   5.527   1.854   6.508 -0.2415  0.3208  0.7160
24970SOL    HW176351   5.571   1.927   6.552 -0.1373  0.1025  0.9804
24970SOL    HW276352   5.476   1.895   6.439 -1.7510  0.8520  2.0821
24971SOL     OW76353   2.805   4.527   0.421  0.1533  0.3670 -0.4888
24971SOL    HW176354   2.831   4.607   0.466  1.9082 -0.6897  0.5180
24971SOL    HW276355   2.794   4.463   0.492 -1.9097 -0.1388 -1.1983
24972SOL     OW76356   6.602   4.469   9.962  0.6895 -0.0924  0.7545
24972SOL    HW176357   6.662   4.543   9.972 -1.4308  1.4580  3.4400
24972SOL    HW276358   6.527   4.505   9.915  0.8692 -1.4279 -0.6350
24973SOL     OW76359   4.785   2.400   3.061 -0.3928  0.1758 -0.4090
24973SOL    HW176360   4.861   2.455   3.043 -0.9022  1.1813  0.4317
24973SOL    HW276361   4.734   2.402   2.979 -0.2612  0.7217 -0.4802
24974SOL     OW76362   3.494   3.808   4.971 -0.0974  0.2150 -0.6509
24974SOL    HW176363   3.544   3.797   5.052 -2.1385 -0.3683  0.5955
24974SOL    HW276364   3.488   3.903   4.960  0.6040  0.2957 -0.3949
24975SOL     OW76365   7.809   6.931   2.625  0.3489  0.5998 -0.4239
24975SOL    HW176366   7.738   6.936   2.561  0.5566 -0.6381 -0.7782
24975SOL    HW276367   7.826   6.838   2.634  1.3272  0.8394  0.3389
24976SOL     OW76368   7.674   4.564   8.918  0.2830  0.3410  0.0112
24976SOL    HW176369   7.764   4.595   8.909  0.2262  0.2962 -0.8335
24976SOL    HW276370   7.682   4.481   8.964  0.6644  0.4030  0.0611
24977SOL     OW76371   1.525   7.453   4.278 -0.4999  0.4816 -0.5274
24977SOL    HW176372   1.535   7.404   4.360 -1.4948 -2.5945 -2.1013
24977SOL    HW276373   1.455   7.516   4.297 -0.2540  0.3030  1.1499
24978SOL     OW76374   6.721   0.698   8.620 -0.4519 -0.3519 -0.4765
24978SOL    HW176375   6.779   0.774   8.611 -1.8368  1.2502  2.6222
24978SOL    HW276376   6.643   0.723   8.570  0.0201 -0.9017 -1.5368
24979SOL     OW76377   5.878   7.440   8.805  0.3799  0.0469  0.5390
24979SOL    HW176378   5.789   7.405   8.794  0.3160  0.4481 -0.3652
24979SOL    HW276379   5.865   7.531   8.829  0.5382  0.2146  0.0087
24980SOL     OW76380   5.324   2.746   7.062 -0.0007  0.0147 -0.1941
24980SOL    HW176381   5.263   2.726   6.991 -0.5516  0.0876  0.2531
24980SOL    HW276382   5.364   2.829   7.037  0.4170 -0.3714 -0.8203
24981SOL     OW76383   4.582   4.716  10.572  0.1287  0.4366 -0.0347
24981SOL    HW176384   4.540   4.796  10.601  0.1322  0.0735  1.0335
24981SOL    HW276385   4.512   4.651  10.568  0.0561  0.5697 -1.2642
24982SOL     OW76386   1.288   2.845   4.054 -0.1945 -0.2504  0.3225
24982SOL    HW176387   1.373   2.867   4.017 -0.3452  0.6695  0.5058
24982SOL    HW276388   1.306   2.828   4.147 -0.3135  0.6687  0.5216
24983SOL     OW76389   1.673   4.775   6.618 -0.3477  0.8256  0.4869
24983SOL    HW176390   1.660   4.729   6.701 -2.5704 -0.2857 -0.3796
24983SOL    HW276391   1.761   4.752   6.591  0.5406  1.4402  2.6460
24984SOL     OW76392   1.018   4.434   2.539 -0.2906 -0.1618  0.7401
24984SOL    HW176393   0.967   4.468   2.466  0.9686 -1.6197 -0.9105
24984SOL    HW276394   1.103   4.411   2.500  0.6996 -0.2872  2.8253
24985SOL     OW76395   3.929   5.823   1.208 -0.1244 -0.2200 -0.5640
24985SOL    HW176396   3.836   5.846   1.217  0.3981  1.9339  0.0108
24985SOL    HW276397   3.937   5.790   1.119 -1.2312  0.7875 -1.0661
24986SOL     OW76398   0.863   0.641   1.297  0.0636 -0.3744 -0.2047
24986SOL    HW176399   0.802   0.568   1.309  0.3024 -1.3460 -3.6711
24986SOL    HW276400   0.949   0.599   1.293  0.2300  0.0620 -1.9936
24987SOL     OW76401   4.513   0.231   2.999  0.1899  0.5022 -0.2574
24987SOL    HW176402   4.543   0.318   2.974  2.2773  0.0866  0.5744
24987SOL    HW276403   4.486   0.190   2.917  2.0011  0.9247 -1.1125
24988SOL     OW76404   2.421   2.818   7.741  0.1850 -0.0704  0.0864
24988SOL    HW176405   2.361   2.878   7.697  0.2980 -0.6023 -0.8210
24988SOL    HW276406   2.406   2.833   7.835  1.4083  2.6149 -0.0292
24989SOL     OW76407   1.488   5.642   0.741 -0.4545  0.1117 -0.0148
24989SOL    HW176408   1.522   5.730   0.721 -0.5469 -0.2935 -2.3172
24989SOL    HW276409   1.400   5.642   0.703 -1.1512 -0.4234  1.5540
24990SOL     OW76410   0.050   0.558  12.363 -0.2073  0.1483 -0.0003
24990SOL    HW176411   0.062   0.635  12.418 -1.5125  0.3101  0.1054
24990SOL    HW276412   0.112   0.494  12.397 -1.1191  0.1646  1.8135
24991SOL     OW76413   6.844   6.757  11.327 -0.4154  0.3023 -0.3101
24991SOL    HW176414   6.897   6.679  11.345 -1.4686 -0.4794 -0.4831
24991SOL    HW276415   6.809   6.782  11.412 -1.0564 -0.1579 -0.4309
24992SOL     OW76416   7.025   7.815   7.233 -0.0242  0.2153  0.1342
24992SOL    HW176417   6.986   7.748   7.289 -0.1212  0.1313 -0.0324
24992SOL    HW276418   6.966   7.819   7.157  0.4329 -0.0931 -0.2414
24993SOL     OW76419   4.571   2.468   6.759  0.4445 -0.2100 -0.1774
24993SOL    HW176420   4.620   2.405   6.705 -0.5856  0.4243 -1.9136
24993SOL    HW276421   4.598   2.554   6.727  2.3862  0.4031  2.6525
24994SOL     OW76422   0.104   5.662   8.556  0.5297 -0.3292  0.2218
24994SOL    HW176423   0.058   5.704   8.628 -1.1923 -0.7746 -0.5819
24994SOL    HW276424   0.072   5.572   8.556 -0.8759  0.0987 -2.1466
24995SOL     OW76425   5.672   6.431   4.241  0.6261  0.2060 -0.0640
24995SOL    HW176426   5.739   6.498   4.244 -1.4443  2.4281 -0.2202
24995SOL    HW276427   5.714   6.355   4.200  2.8171  1.6775 -0.6602
24996SOL     OW76428   3.821   7.768   1.899  0.2753  0.0771  0.0895
24996SOL    HW176429   3.773   7.685   1.899  0.9934 -0.3438 -0.1376
24996SOL    HW276430   3.867   7.769   1.815  1.0270  0.2614  0.5014
24997SOL     OW76431   3.660   6.627   8.851 -0.4344  0.5279 -0.3182
24997SOL    HW176432   3.622   6.546   8.817 -0.5730  0.4779 -0.0522
24997SOL    HW276433   3.632   6.695   8.789 -1.5499  0.6068  0.2431
24998SOL     OW76434   2.192   2.388  12.240  0.0482  0.1524 -0.1862
24998SOL    HW176435   2.213   2.441  12.316 -0.1889 -0.8959  0.6373
24998SOL    HW276436   2.154   2.449  12.177 -0.0434  0.9838  0.6591
24999SOL     OW76437   5.207   3.563   8.518 -0.3849  0.2528 -0.1940
24999SOL    HW176438   5.162   3.551   8.602 -1.0296  0.5645 -0.4932
24999SOL    HW276439   5.192   3.481   8.471  0.1322  0.0054  0.0574
25000SOL     OW76440   5.960   5.995   9.155  0.2917 -0.1817  0.0440
25000SOL    HW176441   5.924   6.041   9.230  0.9207 -0.7602  0.7139
25000SOL    HW276442   6.031   6.052   9.124  0.9093 -0.5677  0.7210
25001SOL     OW76443   5.941   7.640   4.155 -0.0949 -0.5438 -0.2420
25001SOL    HW176444   5.900   7.639   4.242 -1.9336 -2.4021 -1.0414
25001SOL    HW276445   6.007   7.570   4.159 -1.9681 -2.4482 -1.0470
25002SOL     OW76446   1.678   3.027   3.303 -0.0493 -0.0925  0.0394
25002SOL    HW176447   1.617   2.953   3.307  0.7120 -0.7813 -0.7523
25002SOL    HW276448   1.658   3.078   3.382 -0.5485 -1.1669  0.6391
25003SOL     OW76449   1.553   0.083   2.463  0.5668  0.3630 -0.0746
25003SOL    HW176450   1.512   0.130   2.536 -0.0978 -1.2060  0.5947
25003SOL    HW276451   1.601   0.012   2.504 -1.8975 -2.1614 -1.1948
25004SOL     OW76452   4.976   7.399   9.466  1.0920 -0.2270  0.1831
25004SOL    HW176453   4.984   7.424   9.559  0.8257  0.4146  0.0362
25004SOL    HW276454   4.890   7.357   9.460  1.3759 -0.8454  0.3509
25005SOL     OW76455   7.768   0.618   3.759  0.0006  0.4934 -0.0487
25005SOL    HW176456   7.832   0.578   3.818  1.2206  1.8909 -0.3465
25005SOL    HW276457   7.719   0.544   3.723 -0.0946 -0.4635  1.9175
25006SOL     OW76458   2.252   0.722   6.749  0.2065 -0.2638  0.4432
25006SOL    HW176459   2.280   0.753   6.836  0.9310 -2.6035  1.1112
25006SOL    HW276460   2.307   0.645   6.732 -0.9723 -0.7467 -1.4184
25007SOL     OW76461   1.552   5.400  11.746 -0.6166  0.1438 -0.5931
25007SOL    HW176462   1.522   5.461  11.678 -0.2070  1.2681  0.1954
25007SOL    HW276463   1.491   5.327  11.742 -1.7108  1.0593 -0.9331
25008SOL     OW76464   2.074   2.583   7.765  0.5585 -0.1210  0.3607
25008SOL    HW176465   2.163   2.587   7.730  0.3941 -0.9203 -0.1781
25008SOL    HW276466   2.019   2.617   7.694  0.4971  1.2632  1.0285
25009SOL     OW76467   1.921   5.815   8.333  0.2919  0.6758 -0.1387
25009SOL    HW176468   1.983   5.817   8.406  0.8318  1.9542 -0.6071
25009SOL    HW276469   1.917   5.723   8.307  1.7232  0.5207  0.1257
25010SOL     OW76470   6.882   4.860   3.268 -0.5139 -0.0286 -0.5245
25010SOL    HW176471   6.938   4.920   3.219  0.2949  0.6811  1.1585
25010SOL    HW276472   6.861   4.907   3.348 -0.4292 -1.7036  0.5448
25011SOL     OW76473   6.622   7.792   4.079 -0.1869 -0.3942  0.6404
25011SOL    HW176474   6.649   7.790   4.171  0.7107 -0.5563  0.3864
25011SOL    HW276475   6.662   7.872   4.045  0.6037 -1.0087  0.0794
25012SOL     OW76476   0.029   1.058   4.716  0.2128 -0.4192 -0.3322
25012SOL    HW176477   0.075   1.018   4.789  2.4531 -0.5595 -1.6995
25012SOL    HW276478  -0.062   1.063   4.744 -0.0863 -5.3667  0.4292
25013SOL     OW76479   0.890   3.459   7.580  0.3051  0.5664  0.2292
25013SOL    HW176480   0.849   3.516   7.516  1.8236  1.6876  0.1859
25013SOL    HW276481   0.861   3.493   7.665 -1.2098 -0.5329  0.1857
25014SOL     OW76482   2.123   2.100   4.525  0.3271  0.4178 -0.4074
25014SOL    HW176483   2.062   2.173   4.520  0.7507  0.8442  0.4740
25014SOL    HW276484   2.209   2.138   4.506  0.5530  0.1621  0.0796
25015SOL     OW76485   3.366   4.966  11.141 -0.6466 -0.2708  0.3305
25015SOL    HW176486   3.450   4.965  11.094 -1.5328 -0.2239 -1.3581
25015SOL    HW276487   3.366   4.884  11.191  0.2363 -0.4755  0.0283
25016SOL     OW76488   4.429   2.736   2.326  0.3743  0.1945 -0.9792
25016SOL    HW176489   4.348   2.783   2.308  0.6353  0.4751 -1.4526
25016SOL    HW276490   4.455   2.699   2.241  0.5832 -0.1449 -0.7701
25017SOL     OW76491   2.421   6.520   2.926  0.2148 -0.4095  0.2653
25017SOL    HW176492   2.444   6.428   2.939  0.2235 -0.4575 -0.0703
25017SOL    HW276493   2.350   6.518   2.862 -1.9413 -0.3680  2.5189
25018SOL     OW76494   3.365   6.132  11.033  0.4325  0.9755 -0.1726
25018SOL    HW176495   3.430   6.158  10.967  1.5361  1.1534  0.9451
25018SOL    HW276496   3.409   6.147  11.117 -1.2902  1.6964  0.6479
25019SOL     OW76497   1.928   3.680   7.706  0.2372  0.0017 -0.0599
25019SOL    HW176498   2.007   3.639   7.742  1.3394  0.1546 -2.1677
25019SOL    HW276499   1.948   3.693   7.613 -1.6264  1.6378 -0.2861
25020SOL     OW76500   5.169   2.085   6.035 -0.0291  0.3067 -0.1943
25020SOL    HW176501   5.190   2.017   5.970  3.9638 -0.3523  1.4630
25020SOL    HW276502   5.166   2.166   5.984 -0.0196 -0.5197 -1.5923
25021SOL     OW76503   5.651   3.636   6.888 -0.1071  0.1187  0.3824
25021SOL    HW176504   5.556   3.634   6.893 -0.1073  1.6618  2.1491
25021SOL    HW276505   5.674   3.727   6.904  1.6790 -0.2609  0.1823
25022SOL     OW76506   3.039   7.923   9.428 -0.1342  0.5106  0.5544
25022SOL    HW176507   3.018   7.840   9.386 -0.4475  0.4986  0.7331
25022SOL    HW276508   3.053   7.984   9.356  3.2092 -0.3889  0.2814
25023SOL     OW76509   3.502   7.651  10.476 -0.2657 -0.2671 -0.1096
25023SOL    HW176510   3.477   7.645  10.383  2.4535 -1.2813 -0.8688
25023SOL    HW276511   3.491   7.743  10.498 -1.2466 -0.0601 -1.3352
25024SOL     OW76512   5.100   6.292   5.493  0.3002  0.0099  0.3536
25024SOL    HW176513   5.190   6.290   5.459  0.4945  2.1162  0.6392
25024SOL    HW276514   5.059   6.366   5.448 -0.6527  0.3473  1.7259
25025SOL     OW76515   1.093   2.370   7.220 -0.9522  0.8207 -0.0179
25025SOL    HW176516   1.141   2.435   7.271  0.4840  0.7256 -1.1808
25025SOL    HW276517   1.134   2.373   7.133 -0.9405 -1.5143 -0.1540
25026SOL     OW76518   0.478   1.212   2.801  0.5657 -0.6559  0.3972
25026SOL    HW176519   0.537   1.141   2.826  1.6090  0.8070  2.3426
25026SOL    HW276520   0.535   1.286   2.782 -0.5685  0.4584  1.1822
25027SOL     OW76521   5.067   5.221   6.791  0.1075 -0.0010  0.3767
25027SOL    HW176522   5.118   5.185   6.864 -0.1046 -3.3646 -0.9481
25027SOL    HW276523   4.978   5.188   6.806 -0.6353  1.7979  0.1398
25028SOL     OW76524   6.317   3.149   7.773  0.0446  0.0959 -0.1510
25028SOL    HW176525   6.267   3.230   7.762 -0.6354 -0.2902  0.0303
25028SOL    HW276526   6.402   3.168   7.734  0.4202  1.3946  1.1908
25029SOL     OW76527   3.923   5.275   8.395  0.4884  0.3391 -0.1356
25029SOL    HW176528   3.989   5.341   8.373 -0.6573  2.0419  1.3318
25029SOL    HW276529   3.933   5.261   8.489  0.2181 -1.0600 -0.2916
25030SOL     OW76530   6.963   0.735   1.411  0.0956  0.1061  0.2435
25030SOL    HW176531   6.946   0.652   1.365  2.1953 -0.4400  0.3425
25030SOL    HW276532   6.897   0.738   1.480 -1.3260 -0.4492 -1.0334
25031SOL     OW76533   2.863   2.077   7.378  0.4561  0.3269  0.1314
25031SOL    HW176534   2.928   2.035   7.434  0.7766  1.9617  1.0613
25031SOL    HW276535   2.785   2.022   7.387  0.8844 -0.1456  1.2049
25032SOL     OW76536   4.031   2.310   2.367  0.0902  0.0255  0.2733
25032SOL    HW176537   4.023   2.405   2.377 -1.1272 -0.1177  0.8725
25032SOL    HW276538   4.112   2.298   2.318  0.0022  1.4014 -0.2651
25033SOL     OW76539   4.924   7.559   8.972  0.0140 -0.2909 -0.2137
25033SOL    HW176540   4.990   7.623   8.999  0.1915  0.5499 -2.4270
25033SOL    HW276541   4.959   7.521   8.891 -2.7412  1.2429 -2.3128
25034SOL     OW76542   4.561   1.304   9.852  0.5085 -0.4119 -0.4501
25034SOL    HW176543   4.469   1.305   9.826  0.4337 -0.2696 -0.1873
25034SOL    HW276544   4.607   1.341   9.777  0.2256  0.6366 -0.1296
25035SOL     OW76545   7.705   7.943   1.835  0.6273 -0.3026  0.2193
25035SOL    HW176546   7.725   7.903   1.751  0.1037 -0.3716  0.1231
25035SOL    HW276547   7.773   7.911   1.894  0.8894 -0.3979 -0.1348
25036SOL     OW76548   3.748   7.262   1.747  0.3255 -0.1225  0.2048
25036SOL    HW176549   3.720   7.260   1.839 -1.7564 -0.4787 -0.4018
25036SOL    HW276550   3.817   7.329   1.745 -1.7953  2.2581  1.4758
25037SOL     OW76551   4.425   1.117   7.170 -0.0374  0.1473  0.7337
25037SOL    HW176552   4.398   1.104   7.079 -0.9837 -0.4459  1.0790
25037SOL    HW276553   4.342   1.122   7.219  0.3523  3.1944  1.2514
25038SOL     OW76554   7.827   0.868   1.185  0.0469  0.0376  0.3655
25038SOL    HW176555   7.858   0.859   1.276 -2.1315 -0.1660  1.1503
25038SOL    HW276556   7.782   0.785   1.168 -0.6758  0.5890 -0.4395
25039SOL     OW76557   6.184   3.802  11.822  0.7044 -0.0301  0.1431
25039SOL    HW176558   6.225   3.882  11.853 -0.7926  1.3662 -1.2741
25039SOL    HW276559   6.090   3.817  11.832  0.2302 -0.3259 -2.8934
25040SOL     OW76560   4.897   3.268  10.299  0.6281  0.5561 -0.0600
25040SOL    HW176561   4.904   3.247  10.392 -0.8595  1.3757  0.2700
25040SOL    HW276562   4.805   3.252  10.278  0.4607  2.3810 -0.8612
25041SOL     OW76563   5.757   2.910   8.527  0.2010 -0.1398  0.1360
25041SOL    HW176564   5.670   2.901   8.568  0.6006 -2.3023  0.6202
25041SOL    HW276565   5.739   2.955   8.444 -1.5970 -1.5164 -0.3110
25042SOL     OW76566   4.438   1.948  11.489  0.4209  0.0410 -0.1312
25042SOL    HW176567   4.483   2.031  11.504  0.0250  0.1715  0.3367
25042SOL    HW276568   4.365   1.971  11.432 -0.1907  0.1632  0.6951
25043SOL     OW76569   2.715   5.484   6.049 -0.4596  0.1961  0.7651
25043SOL    HW176570   2.702   5.571   6.087 -0.9710  0.6222 -0.3239
25043SOL    HW276571   2.756   5.502   5.964 -0.3679 -0.6494  0.6251
25044SOL     OW76572   0.770   6.496   5.932  0.0873 -0.0727  0.1106
25044SOL    HW176573   0.854   6.461   5.962  0.7691  0.4659 -1.0924
25044SOL    HW276574   0.707   6.470   6.000  1.1957 -0.5972  0.9651
25045SOL     OW76575   3.504   7.673   0.665  0.2649 -0.2714 -0.0088
25045SOL    HW176576   3.414   7.653   0.641  0.1888 -0.2509  0.2620
25045SOL    HW276577   3.554   7.658   0.585  0.2217 -1.5943  0.1993
25046SOL     OW76578   5.630   0.903   7.804 -0.0970 -0.3531  0.6711
25046SOL    HW176579   5.589   0.934   7.885 -0.1005 -1.6177  1.1822
25046SOL    HW276580   5.598   0.962   7.736 -2.9197 -1.3268  1.0115
25047SOL     OW76581   7.079   3.445   0.178  0.3319  0.4603 -1.2929
25047SOL    HW176582   7.019   3.371   0.184 -0.5240  1.2240  0.3243
25047SOL    HW276583   7.161   3.412   0.216 -0.7168  0.9047  1.6549
25048SOL     OW76584   2.116   2.658   9.698 -0.4002 -0.2595  0.3501
25048SOL    HW176585   2.120   2.726   9.631  0.0479 -0.1898  0.4414
25048SOL    HW276586   2.107   2.576   9.648 -0.6308 -0.1585  0.2283
25049SOL     OW76587   5.619   7.911   8.438 -0.0450 -0.1227  0.2587
25049SOL    HW176588   5.629   7.837   8.378  0.5658  0.2061 -0.0477
25049SOL    HW276589   5.681   7.893   8.509 -1.3247 -0.9224  1.2390
25050SOL     OW76590   0.575   0.170  12.036  0.3197 -0.2437 -0.2990
25050SOL    HW176591   0.658   0.183  12.081  0.6329 -1.0954 -0.5948
25050SOL    HW276592   0.510   0.216  12.090  0.8411 -0.3547  0.4397
25051SOL     OW76593   7.884   7.626   7.676 -0.2626 -0.0002 -0.0357
25051SOL    HW176594   7.809   7.682   7.654  1.9550  2.7596 -1.1437
25051SOL    HW276595   7.892   7.566   7.601 -1.8464 -0.9701  0.5250
25052SOL     OW76596   7.546   1.614  11.665  0.0662  0.0559 -0.1365
25052SOL    HW176597   7.450   1.621  11.660  0.0699 -0.0404 -0.3506
25052SOL    HW276598   7.566   1.527  11.630  0.0196 -1.2090  2.6969
25053SOL     OW76599   3.199   5.073   5.800  0.4433  0.0671  0.2001
25053SOL    HW176600   3.161   5.078   5.888 -0.1459 -1.3991  0.0603
25053SOL    HW276601   3.292   5.056   5.815  0.4291  0.2868  0.5420
25054SOL     OW76602   4.493   1.583   5.022  0.7088  0.2164  0.1592
25054SOL    HW176603   4.507   1.526   5.098  0.5180  0.4050  0.3350
25054SOL    HW276604   4.466   1.523   4.952  1.8637 -0.0949 -0.0491
25055SOL     OW76605   4.903   2.552   6.458 -0.1989  0.0223 -0.4520
25055SOL    HW176606   4.961   2.540   6.383  1.7982 -2.1009  1.2825
25055SOL    HW276607   4.832   2.489   6.444 -0.8092  0.8746 -1.3578
25056SOL     OW76608   2.109   6.021   9.349  0.2744 -0.2146  1.0740
25056SOL    HW176609   2.113   5.926   9.358 -0.6753 -0.2089  1.6764
25056SOL    HW276610   2.190   6.044   9.305 -0.2280 -1.4777 -0.6262
25057SOL     OW76611   2.924   5.998   4.779  0.4170 -0.6440 -0.3206
25057SOL    HW176612   2.861   5.949   4.832  0.1056 -1.0788 -1.0636
25057SOL    HW276613   2.970   5.930   4.729  2.0676 -0.4122  0.7988
25058SOL     OW76614   0.122   7.880  12.104 -0.2039  0.4092  0.4084
25058SOL    HW176615   0.121   7.852  12.013 -0.4900  2.3406 -0.2313
25058SOL    HW276616   0.039   7.926  12.117 -0.7717 -0.9878  2.0597
25059SOL     OW76617   3.201   2.878   7.951  1.2355 -0.4919  0.6688
25059SOL    HW176618   3.193   2.797   7.900 -1.6812  0.7753 -1.1545
25059SOL    HW276619   3.139   2.867   8.023 -0.1106  0.4871 -0.2776
25060SOL     OW76620   5.628   7.470   7.260  0.2020  0.3521 -0.2964
25060SOL    HW176621   5.606   7.398   7.201  0.3788  0.1118 -0.0750
25060SOL    HW276622   5.553   7.528   7.256  0.7635  1.0257 -1.7708
25061SOL     OW76623   1.939   1.158   2.324  0.3616 -0.0666 -0.1113
25061SOL    HW176624   1.881   1.088   2.295  1.0982 -1.4947  1.6472
25061SOL    HW276625   1.884   1.213   2.380  0.3384 -0.5904  0.3897
25062SOL     OW76626   1.410   1.824   4.543 -0.3375  0.5186  0.2692
25062SOL    HW176627   1.504   1.810   4.556 -0.0184  1.8667 -0.4334
25062SOL    HW276628   1.370   1.743   4.574  0.8925  0.6570  2.4320
25063SOL     OW76629   5.543   3.795   1.381  0.0205 -0.5405 -0.0979
25063SOL    HW176630   5.605   3.850   1.429  0.8985  0.1506 -1.9150
25063SOL    HW276631   5.470   3.782   1.442  1.2799 -0.1502  1.5731
25064SOL     OW76632   2.196   7.110   0.813 -0.1164 -0.2665 -0.4450
25064SOL    HW176633   2.101   7.108   0.799 -0.3331  1.8766  0.3844
25064SOL    HW276634   2.208   7.167   0.889  1.7694 -1.6406  0.3728
25065SOL     OW76635   2.807   6.804   4.670 -0.3196 -0.4285  0.7229
25065SOL    HW176636   2.879   6.820   4.609  0.3792 -1.4605  1.2454
25065SOL    HW276637   2.830   6.854   4.748 -0.0834 -0.8763  0.9441
25066SOL     OW76638   3.777   4.982   1.724  0.2010 -0.7157 -0.7126
25066SOL    HW176639   3.867   4.964   1.753 -0.1693 -0.6862  0.5056
25066SOL    HW276640   3.727   4.987   1.805 -1.0734 -1.6395 -1.4149
25067SOL     OW76641   2.838   2.902  10.414 -0.0384  0.2012  0.0258
25067SOL    HW176642   2.868   2.844  10.483 -0.3402 -0.5547 -0.4688
25067SOL    HW276643   2.774   2.960  10.457  1.7792  1.5911  1.0064
25068SOL     OW76644   6.773   1.390  12.026  0.1408 -0.3169  0.1117
25068SOL    HW176645   6.723   1.444  12.088  0.6911  0.4641 -0.1071
25068SOL    HW276646   6.748   1.300  12.047 -1.2062  0.0430  0.1194
25069SOL     OW76647   2.319   2.772   6.518  0.4655  0.0709 -0.3702
25069SOL    HW176648   2.346   2.824   6.442  0.6011  0.6697  0.0791
25069SOL    HW276649   2.384   2.794   6.585 -2.0165  2.9248  1.3482
25070SOL     OW76650   5.765   1.244   8.524 -0.0480 -0.1196  0.1628
25070SOL    HW176651   5.711   1.287   8.459  1.4628  2.9706  0.7928
25070SOL    HW276652   5.721   1.262   8.607  0.6832  0.3844  0.4509
25071SOL     OW76653   2.102   4.475   9.924  0.6897 -0.0633  1.0715
25071SOL    HW176654   2.067   4.418   9.992 -0.3889 -0.1666  0.4455
25071SOL    HW276655   2.025   4.519   9.888  1.1598 -0.4897 -0.5124
25072SOL     OW76656   2.712   6.100  11.368 -0.0097  0.1820 -0.3731
25072SOL    HW176657   2.641   6.163  11.380  0.1667  0.4341 -0.6326
25072SOL    HW276658   2.681   6.042  11.298  0.2285  0.5734 -0.8074
25073SOL     OW76659   1.913   4.531   8.985 -0.2342 -0.2745  0.4175
25073SOL    HW176660   1.821   4.512   8.962 -0.2199 -0.0004  0.1399
25073SOL    HW276661   1.910   4.615   9.030 -0.5253 -1.6384  3.1909
25074SOL     OW76662   4.863   2.240   2.791  1.2733  0.3724 -0.0289
25074SOL    HW176663   4.883   2.149   2.771  0.0357 -0.3984  1.9126
25074SOL    HW276664   4.926   2.264   2.859  1.1483  0.7196 -0.0342
25075SOL     OW76665   3.096   5.791   3.537  0.0548 -0.1484 -0.3146
25075SOL    HW176666   3.088   5.758   3.447 -0.8343 -0.7439 -0.0296
25075SOL    HW276667   3.106   5.711   3.589  0.6226  0.2013  0.1157
25076SOL     OW76668   1.676   3.877   3.274  0.5099  0.5964  0.5654
25076SOL    HW176669   1.624   3.810   3.229 -0.9278  0.7883  1.8580
25076SOL    HW276670   1.702   3.836   3.356  1.2183  1.0069  0.5591
25077SOL     OW76671   5.177   3.600   5.814  0.2242  0.5059 -0.0332
25077SOL    HW176672   5.095   3.550   5.824  0.0860  0.3624 -1.6968
25077SOL    HW276673   5.150   3.692   5.824 -0.0425  0.4263 -0.0078
25078SOL     OW76674   6.027   7.599   0.479 -0.3126  0.4479  0.0494
25078SOL    HW176675   5.986   7.683   0.500  0.3847  0.7930  0.0397
25078SOL    HW276676   5.955   7.546   0.444 -0.9304  0.7474  0.8523
25079SOL     OW76677   5.770   3.182   2.941 -0.1271  0.4197 -0.1757
25079SOL    HW176678   5.835   3.238   2.983  0.3175  0.5267 -0.9991
25079SOL    HW276679   5.762   3.216   2.852 -0.0661 -0.6371 -0.6023
25080SOL     OW76680   6.912   3.338   3.170  0.4679 -0.4402  0.4169
25080SOL    HW176681   6.831   3.389   3.176  2.8726  3.9045  0.0006
25080SOL    HW276682   6.968   3.375   3.239  1.7791 -4.1968  1.5949
25081SOL     OW76683   5.284   0.205   7.564  0.2310  0.1769 -0.7689
25081SOL    HW176684   5.349   0.263   7.603  1.6321 -0.5851 -1.8605
25081SOL    HW276685   5.234   0.261   7.505  0.4253  0.6234 -0.5122
25082SOL     OW76686   6.221   4.116  11.296  0.3965  0.1584 -0.1442
25082SOL    HW176687   6.158   4.137  11.227  1.5029  0.0586 -1.2296
25082SOL    HW276688   6.252   4.028  11.274  0.7062  0.0968  0.5225
25083SOL     OW76689   4.322   5.063  11.542  0.2536 -0.4916  0.5991
25083SOL    HW176690   4.379   5.135  11.571 -1.2960  1.2056 -0.3612
25083SOL    HW276691   4.249   5.064  11.603  0.2405 -1.3206  0.6083
25084SOL     OW76692   2.105   4.939   0.622  0.3812 -0.7558  0.0325
25084SOL    HW176693   2.158   5.015   0.597  2.3447 -1.9954  0.2277
25084SOL    HW276694   2.050   4.971   0.694  1.4783  0.3868  0.4050
25085SOL     OW76695   6.705   4.421   8.028  0.3541  0.6824 -0.4587
25085SOL    HW176696   6.781   4.374   7.992 -0.4576 -0.4785 -0.7424
25085SOL    HW276697   6.742   4.494   8.077  1.7409 -0.7051  0.6702
25086SOL     OW76698   0.426   7.473   4.930  0.7633 -1.1152 -0.4014
25086SOL    HW176699   0.461   7.390   4.963  0.5728 -1.6562 -1.5243
25086SOL    HW276700   0.366   7.503   4.998  0.8594 -1.8776  0.0268
25087SOL     OW76701   5.828   6.437   8.739  0.0568  0.2996 -0.1975
25087SOL    HW176702   5.914   6.471   8.718  0.2757  0.4805  0.9257
25087SOL    HW276703   5.795   6.402   8.656  2.1043 -1.7619 -0.2659
25088SOL     OW76704   2.305   5.679   3.080  0.2986 -0.1428  0.3763
25088SOL    HW176705   2.275   5.640   3.162 -0.8385  1.0251  0.5631
25088SOL    HW276706   2.251   5.637   3.013  0.3835 -0.2352  0.3664
25089SOL     OW76707   3.774   5.499   0.217  0.4218  0.7486  0.5211
25089SOL    HW176708   3.823   5.423   0.245  0.6888  0.7816  0.1540
25089SOL    HW276709   3.726   5.528   0.295 -0.1361 -0.1387  0.5248
25090SOL     OW76710   7.139   2.269   2.727  0.3009 -0.1110  0.2420
25090SOL    HW176711   7.068   2.227   2.777  0.6976 -0.9187  0.1521
25090SOL    HW276712   7.124   2.240   2.637  0.3454  0.2870  0.1050
25091SOL     OW76713   7.121   3.463   0.480 -0.0496 -0.1013  0.1959
25091SOL    HW176714   7.085   3.457   0.392  2.0023 -0.9013 -0.6426
25091SOL    HW276715   7.082   3.542   0.517 -0.6973  0.4306 -1.5353
25092SOL     OW76716   3.722   4.382   0.601 -0.0450 -0.0211  0.2599
25092SOL    HW176717   3.771   4.300   0.611  0.2801  0.1550  0.1169
25092SOL    HW276718   3.784   4.443   0.562 -0.4084  0.1768 -0.0177
25093SOL     OW76719   0.983   3.838   6.325  0.1540 -0.5606 -0.0874
25093SOL    HW176720   0.963   3.931   6.341  0.2439 -0.3645 -1.0790
25093SOL    HW276721   1.060   3.839   6.268  0.0316 -1.2408 -0.2730
25094SOL     OW76722   0.304   3.707  11.514  0.7023  0.0293 -0.2072
25094SOL    HW176723   0.354   3.739  11.589 -0.3313  0.9923  0.1038
25094SOL    HW276724   0.313   3.612  11.517 -0.2939 -0.0448  1.8493
25095SOL     OW76725   2.812   4.076   8.472 -0.0636 -0.0673  0.0352
25095SOL    HW176726   2.883   4.083   8.536 -1.4386  2.1855  1.4576
25095SOL    HW276727   2.855   4.086   8.387  1.2277  3.1129  0.9166
25096SOL     OW76728   1.427   1.904  12.259  0.1962  0.5687  0.1440
25096SOL    HW176729   1.467   1.990  12.270  0.7390  0.3967 -0.4182
25096SOL    HW276730   1.478   1.863  12.189 -2.4076  1.2237 -2.3351
25097SOL     OW76731   1.531   3.591  11.054 -0.5764  0.0503  0.2053
25097SOL    HW176732   1.609   3.632  11.091 -1.4079  1.6489  0.2638
25097SOL    HW276733   1.511   3.642  10.976 -0.2410 -1.8082 -1.1528
25098SOL     OW76734   7.145   4.793   2.109  0.2125  1.2844 -0.6005
25098SOL    HW176735   7.194   4.871   2.082 -0.1823  0.9179 -2.5169
25098SOL    HW276736   7.133   4.743   2.028 -1.1227  0.1177  0.2712
25099SOL     OW76737   2.064   3.173   4.859 -0.0058  0.4002  0.3564
25099SOL    HW176738   2.065   3.156   4.765  0.3545  0.0107  0.4261
25099SOL    HW276739   1.976   3.147   4.887  0.0991 -0.1114  0.2321
25100SOL     OW76740   5.848   7.104   9.278  0.4971  0.5647  0.4824
25100SOL    HW176741   5.815   7.135   9.362  0.2326 -0.6816  0.8599
25100SOL    HW276742   5.770   7.097   9.222  0.7913  2.4093 -0.2523
25101SOL     OW76743   3.633   6.424   6.866  0.2647 -0.2614 -0.0019
25101SOL    HW176744   3.585   6.442   6.947 -2.6003 -1.3768 -1.3152
25101SOL    HW276745   3.641   6.328   6.864 -0.4507 -0.3196 -1.3706
25102SOL     OW76746   6.872   0.616   9.293  0.2106  0.0303  0.6207
25102SOL    HW176747   6.929   0.691   9.312 -2.3153  1.6781  2.1797
25102SOL    HW276748   6.785   0.654   9.281 -0.8930 -2.5308 -0.0524
25103SOL     OW76749   5.510   4.705  12.356  0.2969 -0.1116  0.2889
25103SOL    HW176750   5.567   4.697  12.432  0.2429  0.3924  0.3883
25103SOL    HW276751   5.424   4.680  12.388  0.3895 -0.5017  0.2359
25104SOL     OW76752   0.181   4.780  11.451 -0.0695 -0.8693  0.1913
25104SOL    HW176753   0.221   4.703  11.411 -2.2013 -1.0568 -1.8002
25104SOL    HW276754   0.190   4.849  11.386  0.3207  0.1225  1.2648
25105SOL     OW76755   3.937   3.134   3.590  0.2971 -0.6359 -0.2256
25105SOL    HW176756   3.889   3.211   3.556 -0.7455 -1.2034 -0.0916
25105SOL    HW276757   3.965   3.160   3.677  0.7890 -0.0666 -0.5462
25106SOL     OW76758   5.810   2.414  11.744 -0.0401  0.7646  0.1532
25106SOL    HW176759   5.831   2.322  11.759  0.2730  0.8162  0.0425
25106SOL    HW276760   5.715   2.419  11.756  0.0990  0.6817  1.4164
25107SOL     OW76761   7.022   0.541   9.913 -0.6234  0.7110 -0.1111
25107SOL    HW176762   6.935   0.523   9.879 -0.6532  0.0703  0.2912
25107SOL    HW276763   7.063   0.597   9.846 -1.2831  0.8975 -0.3647
25108SOL     OW76764   7.791   4.043  12.130 -0.0363  0.3679 -0.6752
25108SOL    HW176765   7.728   4.105  12.093  0.7682  0.4584 -1.9673
25108SOL    HW276766   7.873   4.063  12.085  0.7744 -0.1776  0.4946
25109SOL     OW76767   1.560   0.336   0.777  0.3937  0.1775 -0.3525
25109SOL    HW176768   1.634   0.315   0.833  0.9880  0.0799 -1.1561
25109SOL    HW276769   1.507   0.255   0.776  0.5400  0.0787 -0.1911
25110SOL     OW76770   1.398   0.880   5.839 -0.8135 -0.0043 -0.1388
25110SOL    HW176771   1.415   0.964   5.796  2.7829  0.1111  1.1564
25110SOL    HW276772   1.383   0.819   5.767 -0.2697  1.1829 -1.2937
25111SOL     OW76773   6.256   3.816   5.061 -0.4505 -0.6093 -0.6601
25111SOL    HW176774   6.172   3.861   5.064  0.8535  2.0703 -0.7715
25111SOL    HW276775   6.264   3.775   5.147 -0.1555  2.7348  1.0971
25112SOL     OW76776   5.840   6.115   0.151  0.2641 -0.3607 -0.5787
25112SOL    HW176777   5.909   6.110   0.218 -0.5866  0.7849  0.4309
25112SOL    HW276778   5.777   6.047   0.176 -1.1809  1.5142  1.1829
25113SOL     OW76779   0.341   0.081   4.516 -0.7030  0.7813  0.2136
25113SOL    HW176780   0.366   0.163   4.474 -0.7228  1.4412  1.4419
25113SOL    HW276781   0.310   0.107   4.603  0.0711 -0.5950  0.9376
25114SOL     OW76782   2.055   0.027  10.658 -0.2279  0.1160  0.3671
25114SOL    HW176783   2.078  -0.056  10.615 -1.0206  0.0748 -0.0009
25114SOL    HW276784   2.024   0.001  10.745  1.9348  0.2443  1.2397
25115SOL     OW76785   5.590   2.523   0.560 -0.2604  0.2272 -0.0875
25115SOL    HW176786   5.684   2.520   0.572 -0.4501  0.6031  1.8202
25115SOL    HW276787   5.567   2.438   0.522  0.8597  0.2804 -0.9312
25116SOL     OW76788   0.298   3.350   7.432 -0.2575  0.2595  0.0550
25116SOL    HW176789   0.348   3.309   7.362  0.8886  2.3896 -0.4730
25116SOL    HW276790   0.322   3.443   7.428 -0.0337  0.4763  3.3767
25117SOL     OW76791   1.949   3.809   0.169 -0.3387  0.3036  0.6754
25117SOL    HW176792   2.028   3.768   0.206  0.8242  2.6031  0.9308
25117SOL    HW276793   1.907   3.739   0.120  0.2614 -1.7900  2.9526
25118SOL     OW76794   2.766   1.533  11.000  0.1526 -0.1642  0.1597
25118SOL    HW176795   2.844   1.486  11.030  0.3457 -1.2504 -1.8613
25118SOL    HW276796   2.693   1.486  11.041  0.4042 -1.6001 -0.9646
25119SOL     OW76797   5.110   0.498   4.561  0.3429  0.3234 -0.1314
25119SOL    HW176798   5.118   0.549   4.642 -0.6044  1.3114 -0.6373
25119SOL    HW276799   5.135   0.559   4.491 -2.0547  0.5514 -0.8718
25120SOL     OW76800   0.953   3.621  12.286 -0.2217 -0.5180  0.0175
25120SOL    HW176801   1.015   3.667  12.230 -0.8847 -0.5804 -0.7782
25120SOL    HW276802   0.934   3.684  12.356 -0.6204  0.1883 -0.7020
25121SOL     OW76803   0.357   2.747  10.925 -0.1803  0.1782 -0.3329
25121SOL    HW176804   0.345   2.658  10.959  1.5823  0.3522  0.8691
25121SOL    HW276805   0.283   2.796  10.960  0.0181 -0.3253  0.8549
25122SOL     OW76806   3.670   0.924  11.851 -0.7306 -0.3463 -0.7724
25122SOL    HW176807   3.679   0.995  11.788 -0.4566 -1.4930 -2.0820
25122SOL    HW276808   3.650   0.967  11.934  2.6566  1.5295 -0.7298
25123SOL     OW76809   0.802   0.501   7.135  0.0244  0.0967 -0.3323
25123SOL    HW176810   0.766   0.422   7.095  0.6357  0.0718 -0.8492
25123SOL    HW276811   0.813   0.562   7.063 -0.3401  0.6218  0.0489
25124SOL     OW76812   1.944   4.498   3.041  0.4073 -0.4946 -0.2394
25124SOL    HW176813   1.984   4.502   2.954  0.4886  0.2605 -0.1771
25124SOL    HW276814   1.944   4.405   3.064  1.0803 -0.6195 -0.7248
25125SOL     OW76815   2.541   5.673   7.010  0.3962  0.1721 -0.3782
25125SOL    HW176816   2.517   5.614   6.939 -0.1852  2.1023 -1.8821
25125SOL    HW276817   2.618   5.720   6.977 -0.2051  1.4782  0.0185
25126SOL     OW76818   2.530   2.561   8.444  0.1791 -0.3941 -0.2741
25126SOL    HW176819   2.543   2.650   8.412 -0.2936  0.4800  1.8050
25126SOL    HW276820   2.581   2.506   8.384 -0.9618  1.0456 -2.6810
25127SOL     OW76821   5.807   6.490  10.195 -0.3978  0.2965  0.2950
25127SOL    HW176822   5.820   6.559  10.130 -1.0640 -0.3643 -0.5573
25127SOL    HW276823   5.818   6.409  10.146 -1.4268 -0.2228  0.8912
25128SOL     OW76824   6.803   7.187   1.237 -0.5322 -0.5691  0.2993
25128SOL    HW176825   6.745   7.234   1.297 -2.5623 -1.6909 -0.6774
25128SOL    HW276826   6.884   7.174   1.287 -0.9170  1.4358  1.5732
25129SOL     OW76827   3.205   7.512   6.701  0.5316 -0.2531  0.4715
25129SOL    HW176828   3.110   7.513   6.691  0.4352  1.5583  1.0571
25129SOL    HW276829   3.239   7.539   6.615  0.5267 -1.0260  0.2253
25130SOL     OW76830   6.438   0.517   0.052 -0.4628 -0.3580 -0.6404
25130SOL    HW176831   6.496   0.493   0.124 -1.2866 -1.3627 -0.2816
25130SOL    HW276832   6.350   0.499   0.085 -1.1054  2.2877 -0.7425
25131SOL     OW76833   1.156   0.159   8.950 -0.5574 -0.8429  0.2275
25131SOL    HW176834   1.246   0.185   8.971 -1.0563  1.1152  0.1841
25131SOL    HW276835   1.113   0.241   8.924 -2.2346 -1.8095 -0.2099
25132SOL     OW76836   3.817   4.422   3.559  0.7775  0.1121  1.0341
25132SOL    HW176837   3.820   4.509   3.518 -0.7594 -0.9910 -1.6702
25132SOL    HW276838   3.742   4.426   3.618  0.4097  0.4983  0.5484
25133SOL     OW76839   1.707   7.457   4.788 -0.5369 -0.4670  0.5069
25133SOL    HW176840   1.767   7.469   4.714  0.2887 -0.1484  1.2149
25133SOL    HW276841   1.753   7.494   4.863 -1.7279  0.0222  1.0318
25134SOL     OW76842   7.046   1.332  11.435 -0.0270 -0.0009 -0.1160
25134SOL    HW176843   7.079   1.248  11.466  0.5233 -0.4108 -1.6950
25134SOL    HW276844   6.977   1.309  11.373 -0.8584  0.7699  0.5003
25135SOL     OW76845   1.925   1.517  10.410 -0.1150  0.3312  0.9010
25135SOL    HW176846   1.984   1.588  10.435  2.4281 -1.3554  0.1380
25135SOL    HW276847   1.891   1.543  10.324  0.3146  0.8906  0.8931
25136SOL     OW76848   4.323   7.533   2.474  0.0445  0.0914  0.3358
25136SOL    HW176849   4.302   7.445   2.443  0.8388 -0.8458  2.2778
25136SOL    HW276850   4.416   7.529   2.497 -0.4573  0.6979  2.6950
25137SOL     OW76851   3.762   4.643   1.121  0.3475 -0.0631  0.4334
25137SOL    HW176852   3.810   4.716   1.161  1.8948 -0.7220 -0.1342
25137SOL    HW276853   3.791   4.643   1.030 -2.0189  0.5055 -0.3695
25138SOL     OW76854   7.661   3.611  12.131 -0.0389  0.4414  0.1462
25138SOL    HW176855   7.656   3.574  12.219  1.2273 -0.8385 -0.2910
25138SOL    HW276856   7.617   3.696  12.139 -0.1101  0.2826  1.9651
25139SOL     OW76857   7.774   3.502   4.767 -0.3114  0.1423 -0.1035
25139SOL    HW176858   7.725   3.452   4.702  0.8946 -0.6124 -0.4692
25139SOL    HW276859   7.822   3.435   4.817  0.9895  0.8946 -0.3186
25140SOL     OW76860   3.782   2.366   4.591 -0.1593  0.0008 -0.4179
25140SOL    HW176861   3.808   2.403   4.507  0.9966 -0.8251 -0.4522
25140SOL    HW276862   3.847   2.298   4.609 -1.0152 -0.5857  0.6283
25141SOL     OW76863   1.134   5.416   0.139  0.2110 -0.2140  0.8749
25141SOL    HW176864   1.127   5.508   0.112 -1.6918 -1.0074 -1.7795
25141SOL    HW276865   1.081   5.410   0.218  0.9582  1.0687  1.5083
25142SOL     OW76866   1.194   1.834   3.475  0.3495 -0.0791  0.4574
25142SOL    HW176867   1.191   1.873   3.562  1.3929 -0.7946  0.8370
25142SOL    HW276868   1.111   1.788   3.466 -0.2645  0.9609  0.5908
25143SOL     OW76869   1.607   3.866   6.304 -0.3837 -0.0243 -0.3789
25143SOL    HW176870   1.528   3.891   6.351 -0.8374 -0.9891 -0.6095
25143SOL    HW276871   1.654   3.808   6.364 -0.6326 -0.7156 -0.8467
25144SOL     OW76872   0.560   4.279   8.726 -0.0844 -0.0670  0.5579
25144SOL    HW176873   0.518   4.242   8.804 -1.5254  0.4349  0.0661
25144SOL    HW276874   0.629   4.217   8.704 -1.4750 -1.7283  0.6104
25145SOL     OW76875   6.846   7.237   5.386 -0.3749  0.6307 -0.1083
25145SOL    HW176876   6.814   7.306   5.444 -1.8279  1.1054 -1.4042
25145SOL    HW276877   6.870   7.165   5.445 -0.4936  1.5975  1.1555
25146SOL     OW76878   1.121   7.754  11.976 -0.0062 -0.3664 -0.0680
25146SOL    HW176879   1.075   7.800  11.905 -0.8177 -3.9323 -2.0960
25146SOL    HW276880   1.054   7.744  12.044 -0.3133  0.0125 -0.3051
25147SOL     OW76881   5.325   3.694   8.866 -0.3829 -0.0927 -0.0569
25147SOL    HW176882   5.232   3.677   8.854 -0.4665 -0.9859  1.6140
25147SOL    HW276883   5.345   3.662   8.954  1.8729 -1.5394 -0.9900
25148SOL     OW76884   2.555   0.245   7.053  0.7517  0.5493  0.2804
25148SOL    HW176885   2.598   0.169   7.015 -0.2792 -0.5672  1.2321
25148SOL    HW276886   2.497   0.277   6.984  1.5132  0.7567 -0.2727
25149SOL     OW76887   7.342   6.982   9.107  0.1403 -0.7362  0.1549
25149SOL    HW176888   7.409   6.923   9.142  1.1627  1.3281  1.8947
25149SOL    HW276889   7.271   6.977   9.171 -0.0089 -0.4968  0.0085
25150SOL     OW76890   6.009   6.531   9.588 -0.3001 -0.5467  0.7441
25150SOL    HW176891   6.058   6.451   9.565  1.5849  0.7512  0.0187
25150SOL    HW276892   5.994   6.523   9.682  5.0314  0.7454  2.0548
25151SOL     OW76893   0.639   1.538  10.305 -0.2468  0.2311  0.4386
25151SOL    HW176894   0.618   1.623  10.265  0.3897  1.7050  3.0110
25151SOL    HW276895   0.717   1.555  10.358  0.2368 -2.1400  0.5850
25152SOL     OW76896   1.626   1.094   8.750 -0.2268  0.1398  0.1247
25152SOL    HW176897   1.697   1.148   8.784  1.4647 -0.6527 -1.9147
25152SOL    HW276898   1.663   1.054   8.671 -3.2381  0.3848 -1.5394
25153SOL     OW76899   7.782   5.942   3.907  0.7669  0.0770 -0.1310
25153SOL    HW176900   7.747   5.888   3.978  0.7004  0.0116 -0.2135
25153SOL    HW276901   7.864   5.976   3.942 -0.9367  3.0194  1.3769
25154SOL     OW76902   4.086   6.122   9.652  0.0730  0.0653  0.1199
25154SOL    HW176903   4.104   6.147   9.742  0.1471  0.8544 -0.1083
25154SOL    HW276904   4.151   6.171   9.601  0.2508 -0.6333 -0.3317
25155SOL     OW76905   3.660   4.270   1.710 -0.2960  0.5077  0.7210
25155SOL    HW176906   3.627   4.186   1.679  0.4741  0.2035  0.7194
25155SOL    HW276907   3.666   4.324   1.631 -1.0290  0.6610  0.7561
25156SOL     OW76908   5.609   7.559   9.800 -0.0357  0.5639 -0.0846
25156SOL    HW176909   5.647   7.578   9.886  0.6862 -0.3250 -0.1955
25156SOL    HW276910   5.562   7.477   9.813  2.7585 -1.3644 -1.2660
25157SOL     OW76911   2.442   1.403   3.884 -0.6397  0.0973  0.3381
25157SOL    HW176912   2.424   1.496   3.899  1.1797  0.6063 -0.4131
25157SOL    HW276913   2.386   1.379   3.810  0.1813  1.0748 -0.6232
25158SOL     OW76914   4.984   1.079   5.355  0.2122 -0.0699  0.3115
25158SOL    HW176915   5.051   1.048   5.415  0.1094 -1.7573 -0.3835
25158SOL    HW276916   5.013   1.049   5.268 -0.7235  0.4082 -0.1868
25159SOL     OW76917   6.326   7.614  10.553 -0.4060  0.1404 -0.2901
25159SOL    HW176918   6.308   7.536  10.502  0.6497 -0.8929  0.8590
25159SOL    HW276919   6.418   7.606  10.578 -0.3397  1.6410  0.0384
25160SOL     OW76920   3.423   0.912   1.571 -0.1713  0.0957 -0.5144
25160SOL    HW176921   3.501   0.875   1.530 -0.4782  0.4830 -1.4719
25160SOL    HW276922   3.446   1.004   1.589  0.3679 -0.3503  1.2770
25161SOL     OW76923   3.275   7.629   6.455 -0.2837 -0.1258  0.2793
25161SOL    HW176924   3.340   7.564   6.431  0.2877  0.2032  0.8751
25161SOL    HW276925   3.316   7.713   6.432 -0.2375  0.1169  1.2073
25162SOL     OW76926   2.013   1.140   2.044  0.7322  0.5563  0.5232
25162SOL    HW176927   1.977   1.161   2.131 -0.1287 -0.4836  0.4417
25162SOL    HW276928   1.959   1.067   2.013  1.6474  0.2821 -0.4845
25163SOL     OW76929   5.131   5.405   7.559  0.2603 -0.1911 -0.1352
25163SOL    HW176930   5.189   5.329   7.550 -1.4367 -1.5355 -0.4694
25163SOL    HW276931   5.044   5.366   7.573 -0.5651  1.7232  0.3149
25164SOL     OW76932   7.701   3.675   3.110  0.2377  0.2184 -0.2909
25164SOL    HW176933   7.624   3.682   3.166  0.4293 -0.2559  0.0416
25164SOL    HW276934   7.667   3.648   3.025 -0.1175  1.4980 -0.5793
25165SOL     OW76935   3.408   5.322  10.419 -0.7793 -0.3200  0.1679
25165SOL    HW176936   3.327   5.372  10.428 -0.6099 -0.3621  2.4791
25165SOL    HW276937   3.424   5.286  10.506  2.4627  0.8978  0.2350
25166SOL     OW76938   3.906   5.363   4.322  0.0722  0.0555  0.5018
25166SOL    HW176939   3.991   5.319   4.314  0.5520  1.1763 -0.9372
25166SOL    HW276940   3.885   5.392   4.233 -1.1599  1.0060  1.0701
25167SOL     OW76941   0.926   0.197   4.064  0.5304 -0.0674 -0.2439
25167SOL    HW176942   0.934   0.116   4.015  1.0406 -0.9115  1.1667
25167SOL    HW276943   0.977   0.261   4.014 -0.3603 -0.4392 -1.6816
25168SOL     OW76944   0.975   5.200   2.204  0.3363 -0.4525 -0.0551
25168SOL    HW176945   0.943   5.140   2.271 -1.1856 -0.4953 -0.7749
25168SOL    HW276946   0.953   5.158   2.121  1.6998 -0.1504 -0.5922
25169SOL     OW76947   1.697   5.682   8.131 -0.1358  0.2222  0.3667
25169SOL    HW176948   1.790   5.661   8.122 -0.5614 -1.0174 -1.8182
25169SOL    HW276949   1.695   5.776   8.145  1.4574  0.1385  1.5085
25170SOL     OW76950   7.066   1.089   0.637  0.1208 -0.0799 -0.0134
25170SOL    HW176951   7.102   1.139   0.710 -0.9971 -0.8313  1.0899
25170SOL    HW276952   7.140   1.038   0.604  0.7813  0.7285  0.1837
25171SOL     OW76953   4.130   5.481  10.066  0.2920  0.5165 -0.5776
25171SOL    HW176954   4.061   5.459  10.128  1.4722  1.6148  1.2004
25171SOL    HW276955   4.155   5.398  10.027 -1.2482 -0.0438 -0.4609
25172SOL     OW76956   3.040   0.653  12.416  0.1021 -0.0413 -0.5742
25172SOL    HW176957   3.043   0.649  12.512  0.0947 -0.0882 -0.5759
25172SOL    HW276958   3.130   0.677  12.391 -0.2439  1.4907 -0.4797
25173SOL     OW76959   5.997   0.645   4.632  0.3616  0.1799 -0.0729
25173SOL    HW176960   6.083   0.674   4.663  0.5365  0.5834 -0.8792
25173SOL    HW276961   5.952   0.726   4.609 -0.0848 -0.0548 -0.0338
25174SOL     OW76962   4.214   2.090   8.137 -0.1784  0.2880 -0.1983
25174SOL    HW176963   4.234   2.098   8.231  0.1428  0.6472 -0.2964
25174SOL    HW276964   4.248   2.170   8.099  1.2271 -0.6122 -0.9012
25175SOL     OW76965   6.940   4.552   5.980 -0.4473 -0.1408 -0.6766
25175SOL    HW176966   7.022   4.569   6.026 -0.9801 -0.2249  0.3506
25175SOL    HW276967   6.931   4.457   5.981  1.3420 -0.5041 -4.2906
25176SOL     OW76968   5.919   5.552   5.926  0.0565 -0.4759 -0.2002
25176SOL    HW176969   5.940   5.643   5.906  1.5429 -0.7700 -0.0751
25176SOL    HW276970   5.969   5.501   5.862 -2.1011 -1.1915 -1.4182
25177SOL     OW76971   0.074   1.459   0.095  0.8151 -0.5267 -0.3465
25177SOL    HW176972  -0.018   1.464   0.070  0.6537  0.5935  0.3900
25177SOL    HW276973   0.100   1.370   0.071 -0.7809 -1.2852  0.5102
25178SOL     OW76974   0.139   5.138  11.975  0.0165 -0.2259  0.3161
25178SOL    HW176975   0.053   5.122  12.012  0.2025  0.9251  1.3002
25178SOL    HW276976   0.196   5.155  12.050  0.4586  1.9059 -0.4262
25179SOL     OW76977   5.120   7.852   8.858 -0.2328  0.1128 -0.0522
25179SOL    HW176978   5.028   7.873   8.838 -0.7573 -0.1301  1.9335
25179SOL    HW276979   5.117   7.809   8.943  1.8577  1.3657  0.7338
25180SOL     OW76980   5.520   2.593   2.332  0.1839  0.7578 -0.2393
25180SOL    HW176981   5.584   2.553   2.390  0.2144  1.6819  0.3805
25180SOL    HW276982   5.536   2.687   2.340 -2.4220  1.1478  1.3305
25181SOL     OW76983   4.854   5.444   2.080  0.1937 -0.8517  0.0626
25181SOL    HW176984   4.902   5.466   2.160 -0.1663 -1.4074  0.4367
25181SOL    HW276985   4.793   5.376   2.107 -1.1793  0.2023 -0.2788
25182SOL     OW76986   2.593   4.810  10.611 -0.4765  0.0218  0.4791
25182SOL    HW176987   2.664   4.768  10.658  0.7809  1.3609 -0.1413
25182SOL    HW276988   2.514   4.790  10.662  0.4029 -1.1085  1.4230
25183SOL     OW76989   1.827   6.943   3.495  0.5457  0.4227 -0.2547
25183SOL    HW176990   1.887   7.005   3.454  0.0358  0.6970 -0.5935
25183SOL    HW276991   1.816   6.873   3.430 -0.6155  1.0777 -0.8070
25184SOL     OW76992   5.125   3.923   1.866 -0.7780 -0.2816  0.4829
25184SOL    HW176993   5.101   3.862   1.797  1.5823  0.6362 -1.2842
25184SOL    HW276994   5.139   4.007   1.821  1.6061  0.1723  1.8729
25185SOL     OW76995   7.427   6.405   5.514  0.1211 -0.1484 -0.6497
25185SOL    HW176996   7.497   6.387   5.576 -1.5528 -0.2355  1.3326
25185SOL    HW276997   7.394   6.318   5.490  0.9719 -0.1317 -1.9830
25186SOL     OW76998   2.180   5.173   1.913  0.4141  0.2675 -0.2842
25186SOL    HW176999   2.256   5.116   1.908  0.1832 -0.3238  1.9926
25186SOL    HW277000   2.106   5.115   1.893  0.3495  0.2721 -0.0531
25187SOL     OW77001   4.995   1.025   9.707 -0.8137 -0.4568 -0.7120
25187SOL    HW177002   5.073   1.037   9.653  0.0375  0.5060  0.6721
25187SOL    HW277003   4.981   0.931   9.708  1.7494 -0.9090  0.8764
25188SOL     OW77004   0.783   6.077   7.835  0.4109 -0.1533  0.4502
25188SOL    HW177005   0.775   6.132   7.758 -0.8160 -1.6681 -0.5661
25188SOL    HW277006   0.728   6.118   7.901 -0.1102  0.0818 -0.1322
25189SOL     OW77007   7.544   3.730   0.555 -0.1585  0.4456  0.5681
25189SOL    HW177008   7.536   3.816   0.515 -1.4989  0.9494  1.8362
25189SOL    HW277009   7.470   3.725   0.616 -0.0764 -1.5801  0.5561
25190SOL     OW77010   0.383   6.569  12.072  0.1001  0.1194  0.2812
25190SOL    HW177011   0.311   6.570  12.135  1.0793  0.7946  1.4263
25190SOL    HW277012   0.454   6.615  12.116  1.4092 -0.9569 -0.6156
25191SOL     OW77013   0.726   7.683   3.136 -0.0769 -0.2771 -0.0762
25191SOL    HW177014   0.713   7.760   3.192  0.8851 -0.3160  0.2083
25191SOL    HW277015   0.702   7.714   3.048  0.1201  0.2942  0.0638
25192SOL     OW77016   5.187   6.445   7.963  0.1739  0.5178  0.0338
25192SOL    HW177017   5.212   6.477   7.876  0.3409 -1.8318 -0.8544
25192SOL    HW277018   5.239   6.499   8.023  1.2889  1.1281 -1.3940
25193SOL     OW77019   3.178   3.697   6.907  0.0944  0.1874  0.0605
25193SOL    HW177020   3.214   3.767   6.853  2.3798 -0.5318  0.5611
25193SOL    HW277021   3.221   3.617   6.876  0.3425 -0.4619  1.9259
25194SOL     OW77022   4.495   0.241   0.891  0.2707  0.3163  0.6084
25194SOL    HW177023   4.525   0.206   0.807 -0.7533  1.9665 -0.5173
25194SOL    HW277024   4.473   0.164   0.943 -0.7284 -0.7532 -1.2890
25195SOL     OW77025   2.918   6.931   5.844 -0.5881  1.0925 -0.3257
25195SOL    HW177026   2.929   6.949   5.750  0.4881  0.4813 -0.3440
25195SOL    HW277027   2.836   6.882   5.850 -0.0456  0.0347 -1.1284
25196SOL     OW77028   0.392   4.009   5.532  0.0924 -0.2405  0.3630
25196SOL    HW177029   0.467   3.954   5.556 -0.3612 -1.0882 -0.1035
25196SOL    HW277030   0.381   3.993   5.438  0.0328  0.7653  0.1869
25197SOL     OW77031   3.507   6.531   6.316  0.2689  0.3894 -0.4096
25197SOL    HW177032   3.553   6.528   6.400  2.6868  0.6789 -1.6304
25197SOL    HW277033   3.463   6.447   6.310 -1.4637  1.0334  1.8770
25198SOL     OW77034   7.670   2.004   2.959  0.6701  0.0593 -0.7014
25198SOL    HW177035   7.600   1.939   2.948  0.8644 -0.2716 -0.0605
25198SOL    HW277036   7.687   2.004   3.053  1.0231  0.6774 -0.7636
25199SOL     OW77037   3.189   7.123   7.191 -0.6337 -0.1412  0.0199
25199SOL    HW177038   3.103   7.081   7.181 -0.9135  0.1553  1.0270
25199SOL    HW277039   3.169   7.217   7.194 -0.2707 -0.0697  0.2357
25200SOL     OW77040   4.207   2.689   3.739 -0.2814 -0.1062 -0.1600
25200SOL    HW177041   4.138   2.702   3.803 -0.8292 -1.1978 -0.5017
25200SOL    HW277042   4.283   2.662   3.790 -0.1756  0.8141  0.1874
25201SOL     OW77043   5.637   4.308   9.434  0.0967 -0.6152  0.3225
25201SOL    HW177044   5.686   4.389   9.446  1.9839 -1.4444 -1.2724
25201SOL    HW277045   5.704   4.240   9.426 -1.3669 -2.0526 -0.3595
25202SOL     OW77046   7.364   5.655   4.260  0.1472 -0.0418  0.0671
25202SOL    HW177047   7.280   5.699   4.244  0.4873  0.4940 -0.3044
25202SOL    HW277048   7.407   5.708   4.327  0.5325  0.1626 -0.3352
25203SOL     OW77049   5.967   1.780   3.146 -0.3577 -0.5849 -0.4919
25203SOL    HW177050   6.006   1.820   3.224  2.7069 -0.7158 -1.8103
25203SOL    HW277051   5.984   1.686   3.157  0.6736 -0.5441 -1.5333
25204SOL     OW77052   7.637   6.668   7.318 -0.5177 -0.0585 -0.1361
25204SOL    HW177053   7.731   6.684   7.315 -0.5667  0.8224  1.7430
25204SOL    HW277054   7.599   6.736   7.262 -0.0935  0.2399 -0.0674
25205SOL     OW77055   5.072   4.759   6.875  0.0689 -0.4634  0.1153
25205SOL    HW177056   5.020   4.828   6.916  1.9259  2.0648 -1.5246
25205SOL    HW277057   5.008   4.694   6.846 -1.7921  0.7965  1.2429
25206SOL     OW77058   0.693   3.445   1.226  0.4057 -0.5177 -0.2017
25206SOL    HW177059   0.775   3.396   1.235  1.8649  1.3269 -2.1122
25206SOL    HW277060   0.719   3.536   1.242 -1.0997  0.1980 -1.5552
25207SOL     OW77061   4.495   2.632   9.092  0.0424  0.5883 -0.0010
25207SOL    HW177062   4.512   2.596   9.179 -0.2244  1.7268  0.5519
25207SOL    HW277063   4.416   2.685   9.103 -0.4144  0.1611 -1.1139
25208SOL     OW77064   6.553   1.171   1.111  0.3358  0.3047  0.4585
25208SOL    HW177065   6.487   1.220   1.061 -0.7629 -2.6375 -1.2474
25208SOL    HW277066   6.636   1.209   1.084 -0.4067  0.6921 -1.4806
25209SOL     OW77067   6.288   2.693   1.394  0.2506  0.5441  0.1419
25209SOL    HW177068   6.247   2.620   1.347 -1.1564  0.7609  0.9728
25209SOL    HW277069   6.357   2.724   1.335 -1.1632  0.5371 -1.6017
25210SOL     OW77070   5.904   5.658  12.064 -0.4038  0.0067 -0.0406
25210SOL    HW177071   5.836   5.651  11.998 -0.4794 -1.6877  0.1781
25210SOL    HW277072   5.929   5.567  12.083  1.7762  0.5579  0.0283
25211SOL     OW77073   7.260   4.814  10.102  0.3864 -0.0339 -0.0411
25211SOL    HW177074   7.202   4.862  10.042 -0.8304 -0.9152  0.3949
25211SOL    HW277075   7.330   4.782  10.046  0.1719  0.5802 -0.6838
25212SOL     OW77076   5.570   5.012   7.670 -0.4468 -0.2863  0.1822
25212SOL    HW177077   5.603   5.078   7.731 -0.7882  0.1073 -0.0592
25212SOL    HW277078   5.495   5.053   7.628  0.1666 -0.3090 -0.9833
25213SOL     OW77079   1.680   7.913  10.615 -0.5240  0.0161  0.6252
25213SOL    HW177080   1.738   7.947  10.546 -1.4942 -0.7092 -0.5755
25213SOL    HW277081   1.678   7.818  10.600 -0.2399 -0.2472  2.0774
25214SOL     OW77082   2.314   7.666   7.920  0.0279  0.7934  0.2878
25214SOL    HW177083   2.391   7.611   7.937 -1.1614 -0.6733  1.1655
25214SOL    HW277084   2.317   7.733   7.989  1.0473  1.3884 -0.3048
25215SOL     OW77085   6.633   5.833   5.701  0.2038 -0.4976  0.5152
25215SOL    HW177086   6.544   5.802   5.684  0.9637 -3.2545  1.1151
25215SOL    HW277087   6.641   5.914   5.650 -2.2545 -0.7806 -0.4247
25216SOL     OW77088   6.695   1.599   8.527  0.2224  0.0689  0.0189
25216SOL    HW177089   6.615   1.587   8.477  0.1932  3.1259 -0.8878
25216SOL    HW277090   6.764   1.609   8.460  0.8223  0.4184  0.6684
25217SOL     OW77091   0.800   6.055  12.046 -0.6030  0.2010 -0.0792
25217SOL    HW177092   0.781   6.145  12.074 -0.5566  0.0246  0.5266
25217SOL    HW277093   0.872   6.065  11.983 -0.4057  0.5660  0.1981
25218SOL     OW77094   1.678   2.433   0.701  0.2982 -0.0997 -0.1314
25218SOL    HW177095   1.707   2.399   0.616 -0.7574  0.2115 -0.6438
25218SOL    HW277096   1.645   2.356   0.747 -0.1384 -0.1170 -0.4564
25219SOL     OW77097   0.122   3.021  11.456  0.2794 -0.2797  0.3422
25219SOL    HW177098   0.032   3.016  11.489  0.0940 -0.2478 -0.1533
25219SOL    HW277099   0.116   3.079  11.380  0.2171 -2.3785 -1.3471
25220SOL     OW77100   4.355   1.167   0.494 -0.2169 -0.2553  0.0244
25220SOL    HW177101   4.419   1.236   0.477 -2.3963  2.4067  1.7805
25220SOL    HW277102   4.371   1.141   0.585  1.0753 -2.8103 -0.8165
25221SOL     OW77103   3.443   2.105  10.014  0.1854  0.1386 -0.0126
25221SOL    HW177104   3.352   2.095   9.986 -0.1690 -0.2680  1.1813
25221SOL    HW277105   3.448   2.196  10.046  0.6522  0.6783 -1.5358
25222SOL     OW77106   6.359   3.273   4.162 -0.1005  0.0451  0.5096
25222SOL    HW177107   6.334   3.243   4.249 -0.9192  0.5654  0.4681
25222SOL    HW277108   6.432   3.334   4.178  0.7573 -1.0095  0.6884
25223SOL     OW77109   6.108   7.691   8.993  0.3732  0.0407 -0.3928
25223SOL    HW177110   6.023   7.679   8.949 -0.4771 -1.7514  1.5123
25223SOL    HW277111   6.159   7.614   8.967  0.1819 -0.5735  0.9432
25224SOL     OW77112   4.543   4.770   7.446 -0.3976  0.1644  0.0475
25224SOL    HW177113   4.521   4.676   7.447 -0.9371  0.2855  0.1866
25224SOL    HW277114   4.601   4.780   7.371 -0.4695 -0.2547 -0.0708
25225SOL     OW77115   7.715   5.884   7.381  0.5965 -0.4289 -0.5077
25225SOL    HW177116   7.733   5.813   7.442 -1.5560 -0.8256 -0.2687
25225SOL    HW277117   7.676   5.841   7.304  0.9277  0.3157 -1.1057
25226SOL     OW77118   2.981   4.557  10.141 -0.1854  0.9490  0.6635
25226SOL    HW177119   3.050   4.510  10.095 -0.6841  0.4410  0.4314
25226SOL    HW277120   2.964   4.634  10.087 -1.3183 -0.0479 -0.4273
25227SOL     OW77121   4.890   5.613   8.332  0.2750  0.1507 -0.2896
25227SOL    HW177122   4.916   5.586   8.244 -2.4089 -1.9412 -0.5409
25227SOL    HW277123   4.914   5.539   8.388  0.7082  0.8963  0.5407
25228SOL     OW77124   4.055   6.482  11.243 -0.1243 -0.5477 -0.4598
25228SOL    HW177125   4.112   6.488  11.320 -0.7470  2.1235 -0.1425
25228SOL    HW277126   4.090   6.406  11.195  2.1762 -0.4737  0.9157
25229SOL     OW77127   6.274   5.878   2.954  0.4920 -0.3655  0.0737
25229SOL    HW177128   6.190   5.909   2.987  0.0305 -1.6886  0.2276
25229SOL    HW277129   6.254   5.843   2.867  0.7875 -1.0416  0.2668
25230SOL     OW77130   3.835   5.249   7.307  0.3841  0.0838 -0.0057
25230SOL    HW177131   3.809   5.178   7.248  0.8933 -0.2420  0.1521
25230SOL    HW277132   3.904   5.210   7.362 -0.8640  0.0174  1.5847
25231SOL     OW77133   4.160   4.710   1.262  0.0310  0.2365 -0.1581
25231SOL    HW177134   4.208   4.700   1.345 -0.5367 -0.7407  0.0745
25231SOL    HW277135   4.109   4.790   1.273 -0.0598  0.1019  0.4670
25232SOL     OW77136   4.315   3.647   8.509 -0.5623 -0.2924  0.0643
25232SOL    HW177137   4.267   3.564   8.513 -0.7494 -0.2256 -0.6657
25232SOL    HW277138   4.267   3.699   8.444  0.3289 -0.1177 -0.4627
25233SOL     OW77139   6.987   7.529   8.085 -0.3742  0.1400 -0.0428
25233SOL    HW177140   6.978   7.602   8.146 -0.5960  0.2743 -0.2335
25233SOL    HW277141   6.899   7.517   8.049 -0.1191  0.4842 -0.8082
25234SOL     OW77142   0.363   0.477   9.817 -0.5004 -0.1123 -0.1072
25234SOL    HW177143   0.424   0.551   9.816  0.5847 -0.9825 -0.8563
25234SOL    HW277144   0.277   0.516   9.801 -0.1952  1.1666  1.1655
25235SOL     OW77145   0.256   0.747  11.287 -0.6989  0.0756 -0.0512
25235SOL    HW177146   0.270   0.785  11.374  0.1459  0.7341 -0.4580
25235SOL    HW277147   0.244   0.823  11.229 -0.6699 -0.3337 -0.6026
25236SOL     OW77148   0.304   7.820   7.503  0.4008  0.4234 -0.0866
25236SOL    HW177149   0.359   7.894   7.476  0.1824  0.0618 -1.6050
25236SOL    HW277150   0.364   7.745   7.501  0.1280  0.2179 -0.6259
25237SOL     OW77151   3.937   0.570   9.755 -0.1152 -0.1188 -0.1904
25237SOL    HW177152   3.889   0.550   9.675 -2.1530 -0.2942  1.0170
25237SOL    HW277153   3.967   0.485   9.787  2.1444  0.0875 -1.5512
25238SOL     OW77154   7.636   5.746   5.839 -0.7106 -0.5386 -0.0712
25238SOL    HW177155   7.687   5.800   5.779 -0.6484 -1.4366 -0.8650
25238SOL    HW277156   7.620   5.801   5.915  0.2999  0.1989 -0.3846
25239SOL     OW77157   4.407   5.194  10.071 -0.1489 -0.2052  0.3250
25239SOL    HW177158   4.431   5.281  10.101 -1.2868 -0.2837  1.5649
25239SOL    HW277159   4.326   5.174  10.118 -1.3195 -0.8936 -1.8529
25240SOL     OW77160   1.296   6.205   0.276 -0.0129 -0.2620 -0.2319
25240SOL    HW177161   1.217   6.164   0.312 -1.4341 -0.3466 -3.2303
25240SOL    HW277162   1.346   6.132   0.239  0.2486  0.0820 -0.5647
25241SOL     OW77163   0.741   2.564   4.975 -0.4528  0.2212 -0.3613
25241SOL    HW177164   0.793   2.643   4.991  0.4243 -0.1002 -1.4807
25241SOL    HW277165   0.712   2.573   4.884  0.0775 -0.9517 -0.6719
25242SOL     OW77166   1.365   7.024   9.559 -0.5198  0.4040 -0.3082
25242SOL    HW177167   1.327   7.069   9.484  0.8583  0.8710 -0.7454
25242SOL    HW277168   1.331   6.935   9.553 -1.3158  0.7263 -0.8308
25243SOL     OW77169   6.882   1.807   9.686  0.5652 -0.2558  0.1848
25243SOL    HW177170   6.946   1.834   9.752  1.1758  0.1417 -0.5553
25243SOL    HW277171   6.932   1.756   9.623  0.2822  0.4994 -0.6827
25244SOL     OW77172   4.902   2.322   4.514  0.1645  0.2077 -0.3148
25244SOL    HW177173   4.909   2.418   4.520  1.7155  0.0669  0.5683
25244SOL    HW277174   4.872   2.294   4.600 -0.8593 -0.0885 -0.7472
25245SOL     OW77175   4.518   0.242   4.556 -0.2204 -0.4999  0.0965
25245SOL    HW177176   4.595   0.294   4.530 -1.0202  0.4535 -0.4120
25245SOL    HW277177   4.546   0.151   4.544  1.6804 -0.3028  2.2737
25246SOL     OW77178   4.477   7.709  11.776 -0.5668  0.2611  0.4794
25246SOL    HW177179   4.496   7.712  11.870 -2.7204  1.1510  0.9508
25246SOL    HW277180   4.504   7.621  11.749  1.2267  0.4052  1.6207
25247SOL     OW77181   6.759   3.327  12.410 -0.7991 -0.4043  0.3325
25247SOL    HW177182   6.695   3.345  12.479 -0.3290  0.4480  0.5610
25247SOL    HW277183   6.707   3.301  12.334 -1.5443  1.6447  0.0773
25248SOL     OW77184   5.956   3.019   0.777 -0.2015 -0.0066 -0.2680
25248SOL    HW177185   5.957   3.052   0.867 -3.7762 -0.8387  0.1856
25248SOL    HW277186   5.895   2.946   0.778 -0.2710 -0.1213 -3.3749
25249SOL     OW77187   3.334   7.471   7.223 -0.2356 -0.4612  0.3677
25249SOL    HW177188   3.363   7.470   7.132 -0.6543 -1.3055  0.2300
25249SOL    HW277189   3.397   7.416   7.269 -1.8050 -2.7119 -0.0254
25250SOL     OW77190   4.146   1.994   2.248  0.6812  0.4335 -0.6767
25250SOL    HW177191   4.058   1.996   2.210  0.0238  1.4534  0.7760
25250SOL    HW277192   4.204   1.983   2.173 -0.5011  2.7488 -2.0585
25251SOL     OW77193   3.436   4.341   3.486 -0.4000  0.3275 -0.0043
25251SOL    HW177194   3.464   4.369   3.573 -0.9881  0.1540  0.2468
25251SOL    HW277195   3.450   4.246   3.486  1.5687  0.5700 -0.8447
25252SOL     OW77196   6.371   3.337  12.242 -0.0214 -0.0777  0.1849
25252SOL    HW177197   6.449   3.388  12.266  1.7101 -1.7217 -1.5626
25252SOL    HW277198   6.345   3.293  12.324  2.4343 -1.3830  0.3692
25253SOL     OW77199   1.515   0.241   5.222 -0.2231 -0.2596 -0.3672
25253SOL    HW177200   1.579   0.228   5.291 -1.9713 -0.8832  1.2212
25253SOL    HW277201   1.567   0.262   5.145  1.7808  1.6943  1.3682
25254SOL     OW77202   6.120   7.329   0.555  0.1251  0.4354 -0.3838
25254SOL    HW177203   6.212   7.319   0.530 -0.5054 -0.9152 -2.4262
25254SOL    HW277204   6.095   7.414   0.518  0.1092  0.0008 -1.3974
25255SOL     OW77205   4.258   1.465  11.791  0.0453 -0.1904  0.7091
25255SOL    HW177206   4.244   1.456  11.697  1.4601  3.4312 -0.0123
25255SOL    HW277207   4.332   1.407  11.810 -0.4004 -1.1286 -0.3123
25256SOL     OW77208   0.615   2.905  11.159 -0.0546  0.7102  0.2176
25256SOL    HW177209   0.661   2.858  11.090  0.1294  1.7660 -0.4021
25256SOL    HW277210   0.538   2.851  11.178  0.0140  0.2923 -0.6473
25257SOL     OW77211   1.749   1.640   5.996 -0.6109  0.2302 -0.0359
25257SOL    HW177212   1.773   1.597   5.914  0.8694  0.3521  0.2983
25257SOL    HW277213   1.767   1.732   5.980 -0.3926  0.2627  0.3903
25258SOL     OW77214   7.254   1.640   6.926  0.1081 -0.5657  0.3205
25258SOL    HW177215   7.271   1.721   6.975 -2.2882 -0.4568  1.1109
25258SOL    HW277216   7.311   1.575   6.967  0.2227  0.1675  1.3653
25259SOL     OW77217   1.867   7.297   6.572 -0.2290 -0.1066 -0.4206
25259SOL    HW177218   1.914   7.225   6.529 -2.7894 -1.4773 -1.0831
25259SOL    HW277219   1.813   7.335   6.503 -0.9251  0.7159  0.5570
25260SOL     OW77220   7.393   5.788   8.989  0.4141 -0.0543  0.5086
25260SOL    HW177221   7.422   5.697   8.994  1.4936  0.2508  0.0135
25260SOL    HW277222   7.454   5.836   9.045 -0.7003  0.2500  1.4938
25261SOL     OW77223   0.515   0.603   6.885  0.4973  0.3859 -0.1596
25261SOL    HW177224   0.556   0.688   6.903 -2.3367  2.2723 -1.7749
25261SOL    HW277225   0.531   0.589   6.792  0.3061 -0.4893 -0.0669
25262SOL     OW77226   1.870   0.257   5.786 -0.0870  0.3441 -0.5765
25262SOL    HW177227   1.885   0.172   5.745  1.3589  0.9159 -1.3177
25262SOL    HW277228   1.860   0.318   5.713 -1.0890  0.8428 -0.0587
25263SOL     OW77229   3.383   7.678   9.522 -0.7291  0.1095  0.0120
25263SOL    HW177230   3.351   7.606   9.577 -0.8409 -0.1329 -0.3692
25263SOL    HW277231   3.336   7.668   9.439 -1.8897  1.5076  0.4535
25264SOL     OW77232   6.277   1.372   3.192  0.1025 -0.7744  0.0244
25264SOL    HW177233   6.316   1.394   3.276 -1.0017 -0.9621  0.6035
25264SOL    HW277234   6.225   1.294   3.209  0.2078 -1.0689 -0.9366
25265SOL     OW77235   5.156   3.100   0.962  0.3500 -0.1569 -0.2121
25265SOL    HW177236   5.078   3.138   1.004  0.6054  0.7326 -0.5235
25265SOL    HW277237   5.128   3.012   0.935 -0.4896  0.0869 -0.1586
25266SOL     OW77238   7.348   5.754   7.073  0.1081  0.5367 -0.0749
25266SOL    HW177239   7.429   5.797   7.098 -0.0193  0.1422  1.0682
25266SOL    HW277240   7.280   5.796   7.127 -0.5119  1.0813 -1.2396
25267SOL     OW77241   1.818   4.015  12.072  0.3892 -0.3391 -0.0294
25267SOL    HW177242   1.763   3.999  12.149 -1.0402  3.8604  0.0631
25267SOL    HW277243   1.908   4.003  12.103 -0.1398  1.5776  2.4588
25268SOL     OW77244   0.867   0.680   9.084  0.3114  0.0095  0.0987
25268SOL    HW177245   0.900   0.691   9.173 -1.2878  0.9823  0.6128
25268SOL    HW277246   0.833   0.766   9.060 -2.2102 -0.9789 -0.1734
25269SOL     OW77247   2.904   4.742   0.539  0.1272 -0.1668  0.3512
25269SOL    HW177248   2.996   4.740   0.514  0.1372 -0.8041  0.4329
25269SOL    HW277249   2.898   4.811   0.605  0.7052 -0.7122  0.9814
25270SOL     OW77250   4.296   1.368   5.092  0.4658 -0.4056  0.0653
25270SOL    HW177251   4.237   1.444   5.092  0.9263 -0.0147 -1.4151
25270SOL    HW277252   4.359   1.388   5.161 -0.9171 -0.6929  1.4744
25271SOL     OW77253   7.470   1.378   1.387  0.2028 -0.1889  0.1844
25271SOL    HW177254   7.472   1.366   1.292 -0.2950 -2.8668  0.4467
25271SOL    HW277255   7.382   1.354   1.413 -0.3205  2.4612  1.1913
25272SOL     OW77256   5.424   3.308   7.129 -0.2035 -0.4777 -0.6350
25272SOL    HW177257   5.349   3.251   7.146  0.0380 -0.4960  0.4832
25272SOL    HW277258   5.439   3.302   7.035 -0.6499 -1.6718 -0.6413
25273SOL     OW77259   7.090   1.916  10.926 -0.1960 -0.4212 -0.2985
25273SOL    HW177260   7.120   1.827  10.944 -0.1877 -0.2029  0.8179
25273SOL    HW277261   6.995   1.907  10.914 -0.4447 -0.3840  1.3754
25274SOL     OW77262   6.544   3.949   2.012 -0.5304  0.2208  0.2708
25274SOL    HW177263   6.639   3.948   2.024 -0.2541 -0.5097 -1.5809
25274SOL    HW277264   6.509   3.897   2.084  0.6488 -1.1254 -0.0974
25275SOL     OW77265   1.733   7.076   3.905  0.2615 -0.0637  0.2460
25275SOL    HW177266   1.675   7.091   3.979  0.5691  1.2530  0.2568
25275SOL    HW277267   1.675   7.056   3.831 -0.2825  1.9208  0.0922
25276SOL     OW77268   4.536   0.363   7.853  0.2250  0.2235  0.9865
25276SOL    HW177269   4.466   0.424   7.827 -0.5216 -0.9883  0.0271
25276SOL    HW277270   4.617   0.405   7.823 -0.4195  0.0033 -1.1958
25277SOL     OW77271   6.612   2.349  10.590  0.1450 -0.5329  0.3113
25277SOL    HW177272   6.658   2.348  10.506 -0.1151  0.3887  0.1435
25277SOL    HW277273   6.535   2.403  10.574 -0.4951 -1.2664  0.8523
25278SOL     OW77274   1.419   6.128   1.717  0.2480 -0.1890  0.0733
25278SOL    HW177275   1.418   6.214   1.675 -2.1428 -0.6093 -0.9028
25278SOL    HW277276   1.498   6.086   1.683  0.0722  0.6837 -1.5203
25279SOL     OW77277   1.651   5.146   9.248 -0.4019 -0.6825 -0.6284
25279SOL    HW177278   1.652   5.144   9.152  0.9005 -1.9479 -0.6280
25279SOL    HW277279   1.742   5.165   9.272 -1.1049  1.7277  0.3753
25280SOL     OW77280   0.388   7.029   5.426 -1.0312 -0.3337  0.1525
25280SOL    HW177281   0.335   7.106   5.444 -0.0074  0.1938  0.9822
25280SOL    HW277282   0.346   6.958   5.474 -2.5475 -0.5501 -1.3967
25281SOL     OW77283   1.624   5.343   1.475 -0.3636 -0.6447  0.3555
25281SOL    HW177284   1.678   5.304   1.407 -1.5715 -0.4274 -0.7694
25281SOL    HW277285   1.646   5.295   1.555  1.3411 -0.6620 -0.1037
25282SOL     OW77286   5.561   6.883   2.687  0.1246  0.3321 -0.2449
25282SOL    HW177287   5.643   6.914   2.648 -0.9118  1.2113 -1.8525
25282SOL    HW277288   5.505   6.864   2.612 -1.4964  0.7149  0.8146
25283SOL     OW77289   6.510   6.879   8.555 -0.3104 -0.3476 -0.1886
25283SOL    HW177290   6.508   6.832   8.471 -0.2321  0.1406 -0.4654
25283SOL    HW277291   6.603   6.880   8.579 -0.5097 -2.0416  0.7953
25284SOL     OW77292   1.506   7.412   4.582  0.0523  0.0427  0.1372
25284SOL    HW177293   1.423   7.423   4.628  0.5808  0.7429  0.9804
25284SOL    HW277294   1.572   7.421   4.651  0.8494  0.3132 -0.6421
25285SOL     OW77295   3.654   0.308   7.568 -0.2639  0.2780  0.0579
25285SOL    HW177296   3.662   0.214   7.583  0.1205  0.1376 -0.9578
25285SOL    HW277297   3.611   0.341   7.647  0.9895 -0.5015  1.1046
25286SOL     OW77298   4.141   6.418   3.439 -0.3484 -0.5608  0.0852
25286SOL    HW177299   4.082   6.485   3.473  0.8111  0.2321  0.5766
25286SOL    HW277300   4.207   6.407   3.508  0.1052 -1.4090 -0.4687
25287SOL     OW77301   4.048   2.058   4.132 -0.0065 -0.5695  0.3869
25287SOL    HW177302   4.118   2.056   4.067 -1.2112  0.8348 -1.0430
25287SOL    HW277303   4.024   1.966   4.144 -0.0988 -0.8483 -1.5939
25288SOL     OW77304   0.956   6.280  11.141  0.4547  0.1651  0.3358
25288SOL    HW177305   1.034   6.294  11.088  0.2086 -0.2441 -0.1404
25288SOL    HW277306   0.943   6.363  11.187 -0.3267  1.1469 -1.5495
25289SOL     OW77307   0.959   7.849   0.674  0.4795 -0.0053 -0.3928
25289SOL    HW177308   0.976   7.799   0.594 -2.3459 -1.8446  0.0346
25289SOL    HW277309   0.921   7.932   0.643 -0.6167 -0.7145 -0.9904
25290SOL     OW77310   0.897   7.379   5.097 -0.5013  0.7713 -0.3617
25290SOL    HW177311   0.873   7.456   5.046  2.1138  2.3040  0.5299
25290SOL    HW277312   0.952   7.328   5.039 -0.7490  0.5007 -0.3588
25291SOL     OW77313   1.737   4.618   5.195 -0.4901 -0.2999 -0.0662
25291SOL    HW177314   1.677   4.607   5.269 -0.4403 -0.1907 -0.0086
25291SOL    HW277315   1.680   4.623   5.118 -0.5365 -0.5128 -0.0456
25292SOL     OW77316   6.196   2.074   1.941 -0.1332  0.3695  0.7804
25292SOL    HW177317   6.182   2.148   1.882 -0.0332  1.0642  1.6033
25292SOL    HW277318   6.269   2.026   1.903 -0.8908  0.0622 -0.3521
25293SOL     OW77319   4.950   0.991   7.141  0.2360 -0.1532 -0.8506
25293SOL    HW177320   4.875   1.003   7.084 -0.4694  1.3307  0.3212
25293SOL    HW277321   4.973   1.079   7.171  2.7540 -0.4914 -1.4988
25294SOL     OW77322   2.330   2.498   9.954 -0.3250  0.3307  0.1379
25294SOL    HW177323   2.235   2.505   9.956 -0.3088  1.1921 -1.1351
25294SOL    HW277324   2.350   2.468   9.865  0.6409  1.1860  0.0503
25295SOL     OW77325   6.935   7.632   2.598 -0.4161  0.6074 -0.2676
25295SOL    HW177326   6.859   7.623   2.541 -1.3635  0.6666  0.9503
25295SOL    HW277327   6.976   7.714   2.571 -1.5237  1.2296 -0.1014
25296SOL     OW77328   1.763   2.733   2.421 -0.3546  0.1876 -0.4382
25296SOL    HW177329   1.753   2.788   2.344 -0.7662  0.3379 -0.2816
25296SOL    HW277330   1.673   2.705   2.442 -0.2808  0.3915  0.1606
25297SOL     OW77331   7.381   2.113   2.450 -0.8398 -0.1787  0.0936
25297SOL    HW177332   7.314   2.127   2.382  0.1253 -3.1260 -1.6386
25297SOL    HW277333   7.462   2.143   2.410 -0.5178 -0.3314  0.6321
25298SOL     OW77334   3.239   4.372  10.435  0.0209  0.3353 -0.0772
25298SOL    HW177335   3.245   4.447  10.494 -0.4150 -1.1233  1.9351
25298SOL    HW277336   3.145   4.354  10.430  0.1605 -0.4501 -0.0097
25299SOL     OW77337   6.301   6.693   1.563 -0.2255  0.4952 -0.3998
25299SOL    HW177338   6.330   6.628   1.500  1.1035 -1.2351  1.8671
25299SOL    HW277339   6.205   6.683   1.566 -0.1916 -0.1788 -1.2716
25300SOL     OW77340   6.779   5.705  11.633 -0.2626  0.1082  0.1456
25300SOL    HW177341   6.870   5.706  11.661  0.1960  0.8000 -1.2599
25300SOL    HW277342   6.784   5.693  11.538 -1.6018  0.9359 -0.0516
25301SOL     OW77343   7.027   7.512  10.869  0.4101 -0.3344 -0.2516
25301SOL    HW177344   7.092   7.564  10.821 -0.4858 -0.5101 -1.7276
25301SOL    HW277345   6.968   7.577  10.908  0.5649 -0.2010 -0.2390
25302SOL     OW77346   4.410   6.850   0.999  0.1531 -0.8405 -0.7103
25302SOL    HW177347   4.466   6.882   0.929  0.0875  0.3308 -0.2559
25302SOL    HW277348   4.379   6.765   0.969  1.6381 -1.2146 -1.2507
25303SOL     OW77349   7.414   2.718   9.261  0.1236  0.0009  0.1752
25303SOL    HW177350   7.362   2.660   9.204  1.3953  0.1182 -1.1688
25303SOL    HW277351   7.361   2.797   9.270 -1.3192 -1.0677  1.4431
25304SOL     OW77352   6.103   1.836   4.862  0.2509  0.5062 -0.0232
25304SOL    HW177353   6.091   1.873   4.775  0.0168  0.2957 -0.0809
25304SOL    HW277354   6.023   1.785   4.878 -0.1170  1.2916  0.6930
25305SOL     OW77355   4.740   2.089  12.197 -0.4447 -0.8604  0.2459
25305SOL    HW177356   4.757   2.148  12.270  2.7401 -0.5080 -0.6152
25305SOL    HW277357   4.737   2.002  12.235 -0.0788 -0.5709  0.9425
25306SOL     OW77358   1.795   5.058   4.608  0.2184  0.0975 -0.2827
25306SOL    HW177359   1.786   5.145   4.647  0.4589 -0.3942  0.8908
25306SOL    HW277360   1.712   5.014   4.625  0.3546 -0.1526 -0.2567
25307SOL     OW77361   4.824   3.059   5.691 -0.6625 -0.1793 -0.6239
25307SOL    HW177362   4.873   3.140   5.709  0.2564 -1.2690  2.5779
25307SOL    HW277363   4.737   3.076   5.729 -1.1961  0.0292 -1.9041
25308SOL     OW77364   7.654   3.188  10.086 -0.2721 -0.1135  0.1300
25308SOL    HW177365   7.634   3.130  10.159 -1.1377 -0.2801 -0.2261
25308SOL    HW277366   7.611   3.271  10.109 -0.1599 -0.0242  0.0198
25309SOL     OW77367   3.709   4.789  12.293 -0.0859  0.2569  0.1238
25309SOL    HW177368   3.766   4.765  12.366  2.5102 -0.1699 -1.8670
25309SOL    HW277369   3.749   4.869  12.258 -2.2415  1.3950  0.0928
25310SOL     OW77370   1.844   3.456   9.115 -0.1518 -0.1950  0.1455
25310SOL    HW177371   1.801   3.519   9.058 -0.5268 -0.1481  0.4804
25310SOL    HW277372   1.874   3.387   9.056 -1.3177 -0.5871 -0.0144
25311SOL     OW77373   2.447   2.951   6.296 -0.3846  0.3957 -0.3018
25311SOL    HW177374   2.412   2.933   6.209  0.4129  1.1099 -0.7929
25311SOL    HW277375   2.520   3.011   6.280 -0.6061  1.0115  0.9201
25312SOL     OW77376   1.827   3.145   5.441  0.1025  0.1758 -0.3228
25312SOL    HW177377   1.914   3.151   5.402  0.1022  2.6421 -0.0821
25312SOL    HW277378   1.825   3.215   5.506 -0.8699 -2.0399  2.2265
25313SOL     OW77379   7.633   1.415  11.969  0.2882 -0.0051  0.0528
25313SOL    HW177380   7.598   1.467  11.896 -0.1587 -1.2828 -0.6703
25313SOL    HW277381   7.556   1.371  12.005  0.6970 -0.3366  0.5109
25314SOL     OW77382   0.230   7.064   6.167  0.0267  0.2749 -0.7257
25314SOL    HW177383   0.237   7.149   6.211 -0.4214 -0.0963  0.0787
25314SOL    HW277384   0.151   7.070   6.115 -1.5561 -0.5543  1.4315
25315SOL     OW77385   7.381   4.474   2.131  0.4459 -0.0638  0.4846
25315SOL    HW177386   7.463   4.447   2.089 -0.2911 -1.5529 -0.0460
25315SOL    HW277387   7.324   4.398   2.124 -0.9790  0.9272  0.9037
25316SOL     OW77388   0.091   1.408   1.852 -0.4485 -0.4486  0.0041
25316SOL    HW177389   0.065   1.338   1.911 -0.2931 -0.8759 -0.4280
25316SOL    HW277390   0.036   1.396   1.774  0.1477 -0.5885 -0.3997
25317SOL     OW77391   3.046   0.650   3.002 -0.0371 -0.0632 -0.2315
25317SOL    HW177392   3.030   0.583   2.936 -1.3693  0.1150 -0.1179
25317SOL    HW277393   2.964   0.656   3.051  0.5300  0.6574  0.6692
25318SOL     OW77394   4.786   5.908   0.502  0.3571  0.1464  0.2076
25318SOL    HW177395   4.878   5.927   0.488 -0.0092  1.6941 -0.3131
25318SOL    HW277396   4.777   5.814   0.483  1.6100  0.2007 -0.7809
25319SOL     OW77397   3.309   3.678  10.314  0.0609 -0.5371 -0.7142
25319SOL    HW177398   3.393   3.721  10.332 -0.6303 -0.1303  1.9105
25319SOL    HW277399   3.330   3.584  10.317  0.2033 -0.4751  1.5057
25320SOL     OW77400   0.614   0.097   8.421  0.4832  0.0665  0.0455
25320SOL    HW177401   0.623   0.046   8.341 -4.6391 -1.2690  0.0031
25320SOL    HW277402   0.644   0.185   8.397  2.3833 -1.0773 -2.1630
25321SOL     OW77403   2.190   1.466   7.868 -0.5014 -0.4461 -0.3542
25321SOL    HW177404   2.187   1.457   7.963  0.2339 -0.9381 -0.3693
25321SOL    HW277405   2.196   1.376   7.836  0.8212 -0.2332 -0.7888
25322SOL     OW77406   4.480   5.809   3.263 -0.5236 -0.2510  0.4790
25322SOL    HW177407   4.548   5.790   3.198  1.1185  1.7054  1.5373
25322SOL    HW277408   4.494   5.745   3.332  0.2499  0.1305  0.6837
25323SOL     OW77409   3.840   6.324   2.758 -0.2014  0.0344 -0.5905
25323SOL    HW177410   3.750   6.337   2.789  0.3781 -0.7694  1.6690
25323SOL    HW277411   3.831   6.294   2.668 -2.1691  0.2236 -0.4952
25324SOL     OW77412   4.225   4.261  12.086  0.6242  0.3249  0.2537
25324SOL    HW177413   4.207   4.289  12.176 -0.9502  0.8031 -0.1709
25324SOL    HW277414   4.320   4.252  12.081  0.8444  1.7323  1.5410
25325SOL     OW77415   3.904   3.006  10.374 -0.0600  0.2467  0.2636
25325SOL    HW177416   3.864   2.958  10.301  0.7035  0.7884 -0.5245
25325SOL    HW277417   3.965   2.943  10.413 -1.0660 -0.3222  0.9824
25326SOL     OW77418   6.138   1.690   3.779 -0.1808 -0.2547  0.3564
25326SOL    HW177419   6.051   1.652   3.775  0.2749 -1.3224  0.1951
25326SOL    HW277420   6.136   1.762   3.716 -0.1401 -2.0043 -1.7496
25327SOL     OW77421   7.946   6.189  10.986 -0.0619 -0.0029 -0.6538
25327SOL    HW177422   7.853   6.183  11.006  0.3087  0.2436  1.4174
25327SOL    HW277423   7.959   6.278  10.955 -0.1422  0.8291  1.5702
25328SOL     OW77424   5.496   5.658   8.959 -0.2171 -0.1832 -0.7872
25328SOL    HW177425   5.537   5.588   8.909  0.6305  0.3591 -0.8737
25328SOL    HW277426   5.419   5.617   9.000  0.4717 -1.2515 -0.5233
25329SOL     OW77427   3.940   7.280  12.207 -0.1754 -0.1351  0.3094
25329SOL    HW177428   3.959   7.354  12.265  0.8754 -0.1042 -0.0629
25329SOL    HW277429   3.926   7.319  12.121 -1.0201 -0.2530  0.3779
25330SOL     OW77430   7.313   3.024  10.182 -0.6559 -0.3055 -0.4404
25330SOL    HW177431   7.355   3.068  10.257 -0.5400 -0.3396 -0.4850
25330SOL    HW277432   7.266   2.951  10.221 -0.5096 -0.3854 -0.4110
25331SOL     OW77433   4.445   1.199   6.157 -0.1666 -0.5619 -0.4499
25331SOL    HW177434   4.532   1.225   6.189 -0.5857 -0.2999  0.5020
25331SOL    HW277435   4.445   1.104   6.161  0.0829 -0.5653 -0.4829
25332SOL     OW77436   0.843   1.904   3.326  0.4006 -0.4016 -0.1305
25332SOL    HW177437   0.850   1.958   3.248  1.6801 -0.4003 -0.0408
25332SOL    HW277438   0.751   1.878   3.330  0.2726 -0.2069 -1.5028
25333SOL     OW77439   4.289   0.424   7.479 -0.3335  0.6776  0.8643
25333SOL    HW177440   4.358   0.362   7.505 -1.8701 -0.3709  2.6010
25333SOL    HW277441   4.284   0.415   7.383 -1.2984 -2.8446  1.1303
25334SOL     OW77442   7.629   2.934   3.761 -0.0209 -0.3855  0.1133
25334SOL    HW177443   7.670   2.899   3.840  0.1561 -0.8733 -0.1898
25334SOL    HW277444   7.628   3.029   3.774  0.3488 -0.4365  0.5348
25335SOL     OW77445   3.739   4.679   2.025  0.0571  0.1102 -0.4522
25335SOL    HW177446   3.816   4.626   2.045  0.3527  0.3435 -0.9487
25335SOL    HW277447   3.668   4.640   2.076  0.7547  0.5989  0.9406
25336SOL     OW77448   2.856   4.927  11.139 -0.2590 -0.2970  0.2632
25336SOL    HW177449   2.766   4.946  11.114 -0.5787 -0.3691  1.2887
25336SOL    HW277450   2.872   4.837  11.111  0.4601  0.5858 -2.4606
25337SOL     OW77451   5.312   1.652   6.235  0.2618  0.5946  0.4355
25337SOL    HW177452   5.274   1.717   6.295  0.4946  0.7832  0.3779
25337SOL    HW277453   5.354   1.704   6.167 -0.7975  0.3903 -0.4073
25338SOL     OW77454   1.934   4.732   4.579 -0.6430  0.4645  0.3777
25338SOL    HW177455   1.917   4.671   4.650  0.0291  0.3397  0.4355
25338SOL    HW277456   1.869   4.709   4.512 -1.9584  1.2387  1.3247
25339SOL     OW77457   4.496   5.240  11.676 -0.1378  0.4159  0.6788
25339SOL    HW177458   4.493   5.275  11.766 -0.2198  3.0277 -0.2453
25339SOL    HW277459   4.586   5.254  11.647 -0.3780  0.6019 -0.0002
25340SOL     OW77460   3.930   6.251   3.194 -0.3844 -0.4151  0.3759
25340SOL    HW177461   3.908   6.163   3.165 -0.7154 -0.7140  1.5096
25340SOL    HW277462   3.957   6.241   3.285  0.0314  0.5935  0.3837
25341SOL     OW77463   4.467   2.628  11.435 -0.0594  0.4557  0.0154
25341SOL    HW177464   4.404   2.687  11.392 -0.6439 -0.7146 -0.7716
25341SOL    HW277465   4.487   2.562  11.369 -0.1417 -0.7734  1.1859
25342SOL     OW77466   3.865   0.394   2.807 -0.2062  0.6629  0.0341
25342SOL    HW177467   3.847   0.337   2.732  2.3063  0.1852 -0.2752
25342SOL    HW277468   3.884   0.480   2.767  1.2128  0.3886  0.0739
25343SOL     OW77469   4.007   1.375   6.933  1.0606 -0.4839 -0.5891
25343SOL    HW177470   3.993   1.406   6.843  1.4855 -1.0764 -0.8643
25343SOL    HW277471   3.932   1.317   6.950 -0.0970  1.1407  0.1621
25344SOL     OW77472   1.196   5.574   8.984  0.3180  0.2747  0.1940
25344SOL    HW177473   1.144   5.627   8.924  0.6280  0.3088 -0.0426
25344SOL    HW277474   1.282   5.567   8.943  0.4505  0.0694  0.5003
25345SOL     OW77475   7.225   2.538   0.246  0.4563  0.4372  0.2302
25345SOL    HW177476   7.166   2.465   0.229  1.1411  0.0993 -0.8202
25345SOL    HW277477   7.175   2.616   0.222 -0.6109  0.4369  2.2312
25346SOL     OW77478   7.416   6.844  11.139  0.4126  0.3225 -0.1104
25346SOL    HW177479   7.472   6.893  11.078  1.0846  1.5335  1.4071
25346SOL    HW277480   7.344   6.904  11.159 -0.1528 -0.3177 -0.2098
25347SOL     OW77481   4.931   1.185   8.678 -0.1603 -0.1997  0.6187
25347SOL    HW177482   4.962   1.170   8.589 -1.2626  1.7217 -0.1383
25347SOL    HW277483   4.842   1.150   8.678 -0.4948  0.6268  0.6671
25348SOL     OW77484   3.891   0.028   6.727 -0.5689  0.2590 -0.0424
25348SOL    HW177485   3.903   0.032   6.633  0.0493  0.6261  0.0447
25348SOL    HW277486   3.960  -0.032   6.758 -1.7797 -1.1561  0.0187
25349SOL     OW77487   0.857   5.578   6.917 -0.1163 -0.1652 -0.2227
25349SOL    HW177488   0.832   5.596   7.008  0.9401 -0.1776  0.0748
25349SOL    HW277489   0.881   5.485   6.917 -0.1160 -0.1667 -0.5219
25350SOL     OW77490   3.712   2.823   7.962  0.7371 -0.4569 -0.0711
25350SOL    HW177491   3.792   2.829   7.910  0.7114 -1.4948 -0.2580
25350SOL    HW277492   3.669   2.743   7.931 -0.6086  0.3084 -0.2900
25351SOL     OW77493   4.977   2.210   0.262  0.7699 -0.1862  0.3607
25351SOL    HW177494   4.969   2.249   0.175  0.5191  0.1330  0.5244
25351SOL    HW277495   4.950   2.279   0.322 -0.1194 -0.7395  0.6317
25352SOL     OW77496   0.934   4.632  12.082  0.7621 -0.3706  0.2946
25352SOL    HW177497   1.013   4.673  12.047  0.3007  0.8975  0.6804
25352SOL    HW277498   0.872   4.634  12.009  0.7010 -0.2899  0.3497
25353SOL     OW77499   3.616   3.834   3.879 -0.0452 -0.3088 -0.9924
25353SOL    HW177500   3.576   3.809   3.796 -2.7936  0.4612 -0.0217
25353SOL    HW277501   3.548   3.816   3.944  0.4059  2.9297  0.5723
25354SOL     OW77502   7.159   0.264   9.906 -0.5261  0.6359 -0.3537
25354SOL    HW177503   7.119   0.255   9.819  1.0110  3.1728 -1.4410
25354SOL    HW277504   7.145   0.356   9.929  0.3697  0.3664  1.4488
25355SOL     OW77505   2.196   0.238   5.559  0.1358  0.1637 -0.0006
25355SOL    HW177506   2.251   0.280   5.493 -0.0384  2.7911  1.3854
25355SOL    HW277507   2.156   0.311   5.607 -1.6875 -1.6402  1.4158
25356SOL     OW77508   6.785   2.473   2.237  0.0285 -0.2981  0.1317
25356SOL    HW177509   6.793   2.383   2.206  2.5018 -0.2320  0.3268
25356SOL    HW277510   6.710   2.509   2.190  1.1201 -1.4152 -2.6885
25357SOL     OW77511   1.653   4.323   7.284 -0.0989 -0.3202  0.3811
25357SOL    HW177512   1.619   4.408   7.255  2.0122  0.2369 -0.6589
25357SOL    HW277513   1.660   4.271   7.203  0.3895 -0.8235  0.7374
25358SOL     OW77514   6.907   5.860   7.687  0.6743 -0.5256 -0.1235
25358SOL    HW177515   6.888   5.906   7.605  1.6853  3.6043  1.7080
25358SOL    HW277516   6.821   5.833   7.720  0.0462 -0.2715 -1.4794
25359SOL     OW77517   1.335   2.930  12.084 -0.0086 -0.2703  0.0233
25359SOL    HW177518   1.270   2.960  12.148  0.3912 -0.9707  0.7764
25359SOL    HW277519   1.374   3.010  12.051 -1.0756  0.1566 -0.2574
25360SOL     OW77520   0.301   4.255   5.612  0.8222 -0.0579  0.1204
25360SOL    HW177521   0.378   4.258   5.669 -0.2759 -1.3933  1.7912
25360SOL    HW277522   0.318   4.182   5.552  0.7567 -0.5329  0.6717
25361SOL     OW77523   7.596   6.183   9.013  0.1939  0.0089  0.7474
25361SOL    HW177524   7.640   6.237   8.948  1.0941 -1.0054  0.4877
25361SOL    HW277525   7.503   6.199   8.997  0.4230  0.6908  0.0087
25362SOL     OW77526   0.185   6.942  10.148 -0.0842 -0.3181 -0.0664
25362SOL    HW177527   0.126   6.955  10.073 -2.1052  0.6847  1.5989
25362SOL    HW277528   0.233   7.025  10.155 -2.1519  0.8375  1.5291
25363SOL     OW77529   0.783   7.668  10.184  0.0428 -0.5233  0.3514
25363SOL    HW177530   0.868   7.667  10.141 -0.2476  0.5481 -0.2838
25363SOL    HW277531   0.737   7.742  10.145 -1.5339 -1.6325  0.0240
25364SOL     OW77532   4.395   5.454  10.207  1.1031  0.1441  0.3571
25364SOL    HW177533   4.323   5.465  10.270  0.1709 -1.1496 -0.4481
25364SOL    HW277534   4.398   5.538  10.161 -0.6366 -0.1232 -0.3326
25365SOL     OW77535   7.455   3.080   2.875  0.3828  0.0395 -0.4027
25365SOL    HW177536   7.455   3.096   2.781  1.5193 -1.5118 -0.7217
25365SOL    HW277537   7.534   3.124   2.907 -0.4289  1.2531 -0.0076
25366SOL     OW77538   7.420   3.254  10.677  0.3123  0.1441 -0.2965
25366SOL    HW177539   7.394   3.212  10.594 -1.0177  0.4843 -0.0783
25366SOL    HW277540   7.378   3.340  10.674  1.2385  0.6256  0.2215
25367SOL     OW77541   0.705   5.255  11.720  0.4712 -0.3126 -0.5893
25367SOL    HW177542   0.725   5.268  11.813 -0.1609  0.6110 -0.5642
25367SOL    HW277543   0.610   5.249  11.717  0.5391 -1.3564 -1.0771
25368SOL     OW77544   4.845   7.873   1.139  0.1187  0.4621  0.7403
25368SOL    HW177545   4.886   7.814   1.202 -0.9840 -0.5677  0.5480
25368SOL    HW277546   4.857   7.960   1.175  1.3816  0.0844  1.2769
25369SOL     OW77547   0.568   3.751   2.446  0.8618 -0.3635  0.3388
25369SOL    HW177548   0.638   3.693   2.415  0.9663 -1.3876  2.3215
25369SOL    HW277549   0.492   3.727   2.394  1.5441 -0.4563 -0.6464
25370SOL     OW77550   6.764   0.967   5.168  0.2610  0.0301  0.0844
25370SOL    HW177551   6.812   0.914   5.231  0.3726  0.4556  0.3611
25370SOL    HW277552   6.796   1.056   5.182  0.6570  0.0585 -0.9171
25371SOL     OW77553   4.512   2.690  11.821 -0.1229 -0.2659 -0.1849
25371SOL    HW177554   4.425   2.723  11.840 -0.4284  0.3740 -2.4528
25371SOL    HW277555   4.498   2.599  11.794  0.0917 -0.5751  0.6986
25372SOL     OW77556   1.184   6.845   6.209  0.5528 -0.1566  0.0521
25372SOL    HW177557   1.141   6.792   6.276  1.2291  0.7405  1.2459
25372SOL    HW277558   1.186   6.933   6.247  0.2491  0.5516 -1.4970
25373SOL     OW77559   2.061   3.289  10.177  0.2698 -0.4669  0.4032
25373SOL    HW177560   2.044   3.257  10.266  3.6474  0.0736  1.4193
25373SOL    HW277561   2.118   3.223  10.138  0.3752  0.2201 -0.6478
25374SOL     OW77562   4.316   3.606   2.521  0.1334  0.0312 -0.4948
25374SOL    HW177563   4.247   3.646   2.468  0.8878  0.0159 -1.5245
25374SOL    HW277564   4.285   3.517   2.538 -1.0995  0.6949  0.9731
25375SOL     OW77565   5.238   7.647  12.285  0.6889  0.2857  0.0723
25375SOL    HW177566   5.297   7.579  12.319 -1.0908 -0.7027  1.3220
25375SOL    HW277567   5.196   7.607  12.209 -0.2752  0.0107  0.7399
25376SOL     OW77568   3.832   5.522   0.873  0.0968 -0.5802  0.4382
25376SOL    HW177569   3.742   5.525   0.905  0.4355  0.7353  1.3726
25376SOL    HW277570   3.876   5.593   0.920  1.6018 -1.1444 -0.0627
25377SOL     OW77571   6.459   4.442   0.500 -0.0385  0.6711  0.2517
25377SOL    HW177572   6.495   4.529   0.483  2.9427 -0.1622  1.7358
25377SOL    HW277573   6.481   4.391   0.422  0.5122  0.6087  0.4435
25378SOL     OW77574   2.838   6.461   9.104 -0.6465  0.3698 -0.1950
25378SOL    HW177575   2.905   6.464   9.036 -0.4915  1.7119 -0.0188
25378SOL    HW277576   2.885   6.433   9.182 -0.4647  0.4855 -0.2620
25379SOL     OW77577   1.061   0.273   6.598 -0.2342 -0.2276 -0.0943
25379SOL    HW177578   1.063   0.347   6.537 -2.3250  0.4507  0.5757
25379SOL    HW277579   1.036   0.198   6.545 -0.9040  0.1267 -0.2882
25380SOL     OW77580   5.210   5.455   9.906  0.7482  0.1142  0.0038
25380SOL    HW177581   5.182   5.471   9.816  0.0751 -1.2332 -0.0596
25380SOL    HW277582   5.168   5.372   9.929  0.6173  0.6158  1.6859
25381SOL     OW77583   6.374   7.525   0.891 -0.2533  0.1262 -0.3696
25381SOL    HW177584   6.287   7.551   0.922  0.0215 -0.7014  1.1889
25381SOL    HW277585   6.435   7.577   0.943  0.2156  0.0318 -0.8085
25382SOL     OW77586   6.051   0.778   0.757 -0.3099  0.3351 -0.7563
25382SOL    HW177587   5.965   0.820   0.754 -0.7180 -0.4060 -0.0790
25382SOL    HW277588   6.040   0.707   0.821 -0.1191 -1.8273 -2.9870
25383SOL     OW77589   2.230   2.461   7.024 -0.1061 -0.0689 -0.5713
25383SOL    HW177590   2.303   2.435   6.969 -1.0491 -1.0873 -1.3889
25383SOL    HW277591   2.233   2.557   7.025  1.0108 -0.0915 -0.8653
25384SOL     OW77592   2.975   3.432   1.673  0.5009 -0.2209  0.0007
25384SOL    HW177593   2.934   3.361   1.624  0.8134 -0.2600 -0.2098
25384SOL    HW277594   2.919   3.508   1.657  0.8663 -0.1104 -0.8378
25385SOL     OW77595   4.742   4.794   7.639 -0.3446  0.0315  0.2920
25385SOL    HW177596   4.668   4.760   7.590  0.3464 -0.9115 -0.1346
25385SOL    HW277597   4.725   4.768   7.729  0.4633 -2.0728 -0.1088
25386SOL     OW77598   1.223   5.261  11.523 -0.1195 -0.4483 -0.2122
25386SOL    HW177599   1.160   5.330  11.504  0.0079 -0.1034  0.6087
25386SOL    HW277600   1.170   5.184  11.540 -0.3142 -0.2179  0.2356
25387SOL     OW77601   1.396   1.149  11.422 -1.0237 -0.4108 -0.3546
25387SOL    HW177602   1.322   1.096  11.392 -1.7272  0.1819  0.2738
25387SOL    HW277603   1.467   1.086  11.435 -1.9565 -1.2960  0.7698
25388SOL     OW77604   7.496   6.202  12.343 -0.1484 -0.5724  0.1202
25388SOL    HW177605   7.585   6.185  12.374  0.8083 -0.4415 -2.3422
25388SOL    HW277606   7.491   6.297  12.332 -1.3379 -0.3379  2.1635
25389SOL     OW77607   7.791   0.650   3.494  0.4424  0.2853 -0.2403
25389SOL    HW177608   7.815   0.659   3.586  0.4885  2.3327 -0.4173
25389SOL    HW277609   7.764   0.738   3.466 -1.5823 -0.6681 -1.6420
25390SOL     OW77610   4.893   2.401   9.041 -0.2665  0.1771 -0.0840
25390SOL    HW177611   4.827   2.463   9.010 -0.7381 -0.1519  0.2635
25390SOL    HW277612   4.853   2.315   9.028 -1.0567  0.0425  2.6796
25391SOL     OW77613   4.879   5.154   8.337 -0.1725  0.1976  0.3005
25391SOL    HW177614   4.868   5.202   8.419 -0.3951 -2.8404  2.1824
25391SOL    HW277615   4.791   5.149   8.300  0.1336  2.9118 -1.0907
25392SOL     OW77616   5.328   4.098   8.027  0.5083 -0.1198 -0.1127
25392SOL    HW177617   5.282   4.041   7.965  0.7347 -1.6280  1.0377
25392SOL    HW277618   5.348   4.041   8.101  1.6460  1.2360  0.6710
25393SOL     OW77619   3.683   6.071  10.507 -0.0034 -0.3189  0.0692
25393SOL    HW177620   3.657   6.104  10.593  1.7781  1.7322 -0.0762
25393SOL    HW277621   3.777   6.052  10.516  0.2781  0.1948 -1.4657
25394SOL     OW77622   5.228   1.272   4.130 -0.0191  0.8466  0.1680
25394SOL    HW177623   5.132   1.269   4.130 -0.0457  0.1727  2.5145
25394SOL    HW277624   5.255   1.182   4.144  1.0088  0.9680 -0.8854
25395SOL     OW77625   2.021   5.965  12.156 -0.8833  0.5227  0.4607
25395SOL    HW177626   1.966   5.897  12.116 -0.4542 -0.1022  0.9091
25395SOL    HW277627   2.110   5.939  12.135 -0.7065  0.8687  0.7645
25396SOL     OW77628   2.065   6.397  10.309 -0.4289  0.5133  0.4426
25396SOL    HW177629   2.127   6.329  10.335 -0.3808 -0.0572 -1.0344
25396SOL    HW277630   2.023   6.361  10.230 -0.0747  2.3672 -0.6444
25397SOL     OW77631   1.875   1.976   3.813 -0.6628 -0.1967 -0.5335
25397SOL    HW177632   1.932   2.024   3.873 -0.4297 -0.7138 -0.3304
25397SOL    HW277633   1.836   1.907   3.867  0.5014 -1.4512 -1.2180
25398SOL     OW77634   6.148   5.815   7.494  0.4120 -0.2412 -0.0897
25398SOL    HW177635   6.209   5.742   7.506  0.7761  0.0850  0.1149
25398SOL    HW277636   6.067   5.775   7.465  0.8022 -0.6656 -0.6159
25399SOL     OW77637   2.248   7.665   3.200  0.8903 -0.1519 -0.5043
25399SOL    HW177638   2.184   7.721   3.156  0.4704  0.8220  1.2504
25399SOL    HW277639   2.331   7.713   3.193  0.6535  0.4235  0.4620
25400SOL     OW77640   2.049   5.997  10.611 -0.4039 -0.6848  0.0980
25400SOL    HW177641   1.996   5.923  10.581  0.3475 -0.9862 -0.5189
25400SOL    HW277642   2.112   5.959  10.672  0.4293 -0.6843 -0.7398
25401SOL     OW77643   5.643   1.384   7.762 -0.0199  0.6965 -0.0537
25401SOL    HW177644   5.552   1.381   7.733  0.1142  0.7965 -0.4775
25401SOL    HW277645   5.639   1.351   7.852 -0.3822  0.0812 -0.2864
25402SOL     OW77646   7.733   6.368   7.519 -0.0893  0.0783 -0.2436
25402SOL    HW177647   7.706   6.276   7.523  1.6902 -0.4126  1.8690
25402SOL    HW277648   7.650   6.417   7.517 -1.0674 -1.5086  0.0330
25403SOL     OW77649   5.168   1.026   0.956 -0.1716 -0.3424 -0.2896
25403SOL    HW177650   5.094   1.086   0.946 -2.0856 -2.1155  2.1259
25403SOL    HW277651   5.128   0.940   0.963  2.2336 -1.5134  0.0075
25404SOL     OW77652   2.584   1.724   0.120 -0.2427 -1.1876 -0.2043
25404SOL    HW177653   2.499   1.721   0.076  0.3937 -0.5715 -1.5260
25404SOL    HW277654   2.643   1.677   0.061  0.1537 -2.5043  1.1896
25405SOL     OW77655   3.901   3.898  11.388 -0.4538  0.0356 -0.3094
25405SOL    HW177656   3.966   3.887  11.318  1.8008  1.5497  1.3819
25405SOL    HW277657   3.891   3.993  11.395 -1.1838 -0.1193  0.9494
25406SOL     OW77658   4.544   5.670   8.852 -0.6686  0.4818 -0.0970
25406SOL    HW177659   4.521   5.577   8.856 -0.0519  0.3354  0.1487
25406SOL    HW277660   4.540   5.691   8.758 -2.0158  0.5299 -0.0458
25407SOL     OW77661   1.522   6.265   2.945 -0.0191 -0.3580 -0.3134
25407SOL    HW177662   1.487   6.283   3.032 -0.0452  0.3666 -0.4723
25407SOL    HW277663   1.471   6.190   2.913 -2.2974  1.3810 -1.0298
25408SOL     OW77664   5.743   5.430   6.113 -0.1519 -0.2875  0.1157
25408SOL    HW177665   5.767   5.338   6.124  0.8450 -0.3272 -1.9945
25408SOL    HW277666   5.805   5.463   6.048  0.0193  2.1000  1.3911
25409SOL     OW77667   4.939   6.313   0.743  0.1649  0.5054 -0.1053
25409SOL    HW177668   4.932   6.343   0.652 -0.9119 -1.0422 -0.5693
25409SOL    HW277669   4.964   6.221   0.737 -0.5866  0.1921  1.1252
25410SOL     OW77670   0.644   0.212   2.153  0.4439 -0.2458  0.0848
25410SOL    HW177671   0.698   0.276   2.200  0.3785  0.8500 -1.2639
25410SOL    HW277672   0.705   0.168   2.095 -0.0959  1.2711 -1.7351
25411SOL     OW77673   6.997   7.765   9.948  0.4243 -0.6042  0.2822
25411SOL    HW177674   6.919   7.794   9.996  0.5649 -0.0897  0.1958
25411SOL    HW277675   6.981   7.672   9.932  0.0221 -0.6011  0.6414
25412SOL     OW77676   6.065   3.259  11.116 -0.2084 -0.4526  0.3097
25412SOL    HW177677   5.979   3.277  11.152 -0.4180  0.9950 -0.8352
25412SOL    HW277678   6.082   3.168  11.140 -1.8833 -0.6555  0.8670
25413SOL     OW77679   0.809   6.914   8.147  0.0425 -0.1538  0.1186
25413SOL    HW177680   0.754   6.899   8.224 -0.7601  0.3541 -0.3432
25413SOL    HW277681   0.845   6.828   8.127 -1.2283 -0.6721 -0.0495
25414SOL     OW77682   5.606   7.704   5.259  0.2437 -0.1078  0.6806
25414SOL    HW177683   5.510   7.709   5.257  0.0484 -2.0759  2.0466
25414SOL    HW277684   5.628   7.713   5.352  1.5423  1.8647  0.2281
25415SOL     OW77685   1.225   0.134   7.104 -0.0168  0.0633  0.4181
25415SOL    HW177686   1.195   0.043   7.111 -0.4567 -0.0212 -1.8235
25415SOL    HW277687   1.170   0.172   7.035  2.1718  1.1474 -0.8225
25416SOL     OW77688   5.367   6.214   2.767 -0.3043  0.0193  0.6139
25416SOL    HW177689   5.320   6.276   2.713  1.2210  0.1630 -0.6285
25416SOL    HW277690   5.451   6.257   2.786  0.1425 -1.0060  1.0750
25417SOL     OW77691   0.054   3.832  11.544  0.5315  0.6023  0.1067
25417SOL    HW177692   0.088   3.746  11.569  2.3778  0.5899 -2.1493
25417SOL    HW277693   0.130   3.890  11.545 -0.4612  1.9610  0.4084
25418SOL     OW77694   3.253   7.784   2.159  0.0139  0.9700 -0.0919
25418SOL    HW177695   3.264   7.811   2.067  1.2454 -0.6680 -0.4839
25418SOL    HW277696   3.261   7.688   2.156 -0.1028  0.8828  1.7110
25419SOL     OW77697   2.011   5.946   3.485 -0.1782  0.1383  0.6719
25419SOL    HW177698   1.994   6.020   3.543 -1.2541  2.3066 -2.1516
25419SOL    HW277699   1.924   5.913   3.462  0.1928 -0.4362  0.0378
25420SOL     OW77700   3.485   0.548   0.314  1.2542  0.5927  0.3592
25420SOL    HW177701   3.414   0.545   0.250  1.3847  2.6964  0.0294
25420SOL    HW277702   3.477   0.466   0.363 -1.5965  0.8764  0.5573
25421SOL     OW77703   5.040   3.502   0.354  0.0621 -0.4270  0.3809
25421SOL    HW177704   5.124   3.503   0.401  0.6573  0.2794 -0.6588
25421SOL    HW277705   5.036   3.414   0.315  0.5890 -0.2811 -0.0193
25422SOL     OW77706   2.729   3.432   0.631 -0.2264  0.1206  0.0812
25422SOL    HW177707   2.745   3.352   0.581 -0.3580 -0.8195  1.4922
25422SOL    HW277708   2.635   3.449   0.621 -0.6020 -1.0420  1.3648
25423SOL     OW77709   6.533   5.538   2.881  0.2398  0.1291  0.0338
25423SOL    HW177710   6.564   5.629   2.879 -0.2190  0.2740 -1.6829
25423SOL    HW277711   6.597   5.493   2.936  1.4901  1.1294 -0.5493
25424SOL     OW77712   6.238   3.696   4.770 -0.0467 -0.3757  0.4938
25424SOL    HW177713   6.276   3.719   4.855  0.4594 -1.2324  0.4998
25424SOL    HW277714   6.185   3.773   4.747  0.4557  0.1965  1.1980
25425SOL     OW77715   7.103   6.147   0.140  0.2442 -0.2278 -0.3446
25425SOL    HW177716   7.099   6.239   0.165  0.6076 -0.3825  0.3292
25425SOL    HW277717   7.122   6.101   0.223  0.8234 -0.8304 -0.7985
25426SOL     OW77718   0.739   3.848   4.989 -0.0059  0.2478  0.1944
25426SOL    HW177719   0.712   3.885   5.073 -1.0950 -0.7141  0.3000
25426SOL    HW277720   0.806   3.783   5.012 -2.5932 -2.4143  0.7705
25427SOL     OW77721   5.430   2.470   8.623 -0.3576 -0.1110  0.2039
25427SOL    HW177722   5.379   2.392   8.603 -1.3113  0.1074  1.6565
25427SOL    HW277723   5.488   2.480   8.548 -2.1755 -0.5780 -1.3422
25428SOL     OW77724   0.095   7.013   1.195 -0.0802  0.0823  0.6232
25428SOL    HW177725   0.125   7.085   1.250  1.6003  0.2634 -0.4630
25428SOL    HW277726   0.173   6.985   1.147 -1.3132 -0.5555 -1.1139
25429SOL     OW77727   7.132   1.080   2.848 -0.0532  0.0956  0.3270
25429SOL    HW177728   7.177   1.163   2.831 -0.6316  0.6282  1.2858
25429SOL    HW277729   7.064   1.103   2.911  0.7453 -1.3801  1.8065
25430SOL     OW77730   5.132   7.293   5.036  0.5370  0.4093 -0.2357
25430SOL    HW177731   5.113   7.309   5.128 -1.0648 -1.2727 -0.2072
25430SOL    HW277732   5.083   7.362   4.989 -0.8569 -0.3142  0.1013
25431SOL     OW77733   3.891   3.459   4.956  0.4987  0.4605  0.0799
25431SOL    HW177734   3.851   3.521   4.895  0.3735 -0.5733 -0.9198
25431SOL    HW277735   3.820   3.431   5.013  0.8334  2.2534  1.4707
25432SOL     OW77736   4.852   5.908  10.453 -0.2173 -0.1592 -0.3274
25432SOL    HW177737   4.828   5.845  10.522  1.7300 -1.2489 -0.5631
25432SOL    HW277738   4.772   5.921  10.403 -0.9092 -1.7755  0.2938
25433SOL     OW77739   2.252   5.154  11.952  0.0983 -0.3624 -0.5481
25433SOL    HW177740   2.219   5.212  12.022  3.5263  0.4063  0.6019
25433SOL    HW277741   2.251   5.067  11.992 -2.2129 -0.7401 -1.2434
25434SOL     OW77742   4.067   0.752  12.112  0.1777 -0.3987  0.3706
25434SOL    HW177743   4.089   0.659  12.108 -0.6389 -0.5947  0.2609
25434SOL    HW277744   3.982   0.759  12.068  0.3125  0.4281  0.2201
25435SOL     OW77745   0.664   5.565   7.405  0.3117 -0.4340 -0.2692
25435SOL    HW177746   0.581   5.546   7.450  0.9354 -0.6426  0.8356
25435SOL    HW277747   0.705   5.633   7.459  1.3269 -1.0822 -0.2041
25436SOL     OW77748   2.147   4.700   8.995 -0.0429 -0.2218 -0.1030
25436SOL    HW177749   2.115   4.790   8.993  0.2969 -0.1128 -0.7519
25436SOL    HW277750   2.172   4.686   9.087 -1.1872 -0.0558  0.2601
25437SOL     OW77751   4.436   0.957   7.879 -0.4693  0.5662  0.3974
25437SOL    HW177752   4.391   0.916   7.952 -1.0380 -0.0214 -0.2610
25437SOL    HW277753   4.487   0.887   7.839 -1.7332  0.3663 -0.9582
25438SOL     OW77754   2.374   7.047  11.941 -0.3192  0.0359 -0.1054
25438SOL    HW177755   2.454   7.066  11.989 -0.5664 -0.3963  0.4880
25438SOL    HW277756   2.403   7.030  11.851  0.0611  1.6331 -0.3075
25439SOL     OW77757   4.286   7.523   1.698 -0.1442 -0.0078  0.7072
25439SOL    HW177758   4.227   7.578   1.750  0.8838  1.1666  0.6846
25439SOL    HW277759   4.228   7.470   1.644 -1.1847  1.5967  0.1901
25440SOL     OW77760   3.266   2.918   7.458 -0.4642 -0.0855 -0.6111
25440SOL    HW177761   3.276   2.973   7.536  0.0043 -0.1765 -0.6062
25440SOL    HW277762   3.210   2.969   7.400 -2.1975 -0.7060  0.4429
25441SOL     OW77763   2.849   2.718   4.996  0.3756  0.1769  0.0605
25441SOL    HW177764   2.868   2.737   4.904  3.5447  0.3351  0.6231
25441SOL    HW277765   2.805   2.633   4.995 -0.5593  0.6441 -1.6295
25442SOL     OW77766   1.373   3.882  11.988 -0.1451 -0.4715  0.2362
25442SOL    HW177767   1.363   3.839  11.903  2.4336  0.6831 -0.7822
25442SOL    HW277768   1.436   3.827  12.035 -1.0495 -0.7408  1.1615
25443SOL     OW77769   7.009   2.929   6.999  0.0389  0.3303  0.4384
25443SOL    HW177770   7.046   3.000   6.945  0.9689 -1.8857 -2.0574
25443SOL    HW277771   6.958   2.877   6.938 -2.1209 -0.2332  2.5827
25444SOL     OW77772   6.734   7.170   4.972 -0.0742  0.5350 -0.6188
25444SOL    HW177773   6.694   7.180   5.059 -1.6658  0.5592 -1.3126
25444SOL    HW277774   6.741   7.259   4.939  2.9185  0.8091  0.4223
25445SOL     OW77775   1.613   2.746   5.707  0.1627 -0.6402 -0.3779
25445SOL    HW177776   1.583   2.836   5.702 -0.4823 -0.8826 -1.1108
25445SOL    HW277777   1.699   2.746   5.664  0.1815 -0.3804 -0.3402
25446SOL     OW77778   5.886   5.825   8.283  0.5400 -0.0024 -0.0518
25446SOL    HW177779   5.832   5.858   8.354  0.2473 -0.1271 -0.2139
25446SOL    HW277780   5.829   5.763   8.237  0.0063  1.5523 -1.6123
25447SOL     OW77781   7.894   5.473   4.869 -0.1441  0.1144 -0.0974
25447SOL    HW177782   7.929   5.503   4.952  1.4694  1.4351 -1.1812
25447SOL    HW277783   7.811   5.520   4.858  0.6872  1.6021 -0.1888
25448SOL     OW77784   4.980   5.982   8.104 -0.7621  0.1694 -0.3647
25448SOL    HW177785   5.025   6.063   8.081  0.4773 -0.3278  0.2023
25448SOL    HW277786   5.021   5.915   8.049  0.0064 -0.4853  0.9528
25449SOL     OW77787   4.975   0.421   1.672 -0.5126 -0.0614  0.0630
25449SOL    HW177788   4.993   0.339   1.625  2.0145  1.2783 -1.5358
25449SOL    HW277789   5.032   0.419   1.748 -1.7906 -0.5327  1.0418
25450SOL     OW77790   2.500   1.911   3.997 -0.0868  0.5278 -0.0067
25450SOL    HW177791   2.476   2.002   4.014 -0.1421  0.7180 -1.0584
25450SOL    HW277792   2.491   1.900   3.903  1.5223 -0.0985 -0.1348
25451SOL     OW77793   1.883   4.089  10.185  0.0687 -0.1806 -0.6113
25451SOL    HW177794   1.899   4.009  10.234 -0.0186  0.1531 -0.0156
25451SOL    HW277795   1.845   4.149  10.250  0.1259  0.3369 -1.0475
25452SOL     OW77796   5.681   0.916   9.658 -0.1478 -0.0784  0.6780
25452SOL    HW177797   5.739   0.863   9.713 -0.7313 -0.4072  0.9930
25452SOL    HW277798   5.602   0.862   9.648  0.1552 -0.2486 -0.9199
25453SOL     OW77799   2.193   4.707   4.445 -0.8880  0.6514 -0.0116
25453SOL    HW177800   2.202   4.644   4.374  2.4879 -0.5693  1.3071
25453SOL    HW277801   2.111   4.682   4.488 -0.5050 -1.7928 -0.5302
25454SOL     OW77802   2.709   3.365   1.467 -0.5269  0.2334 -0.2364
25454SOL    HW177803   2.630   3.415   1.489 -0.1492  1.8221 -2.2343
25454SOL    HW277804   2.739   3.401   1.384  1.6089 -1.1962 -0.1841
25455SOL     OW77805   4.381   3.253   0.441  0.2929 -0.1173 -0.6407
25455SOL    HW177806   4.318   3.181   0.441 -1.5041  1.3092  1.5506
25455SOL    HW277807   4.362   3.302   0.360 -0.9158 -0.1682 -0.4098
25456SOL     OW77808   3.372   5.211   7.663  0.2935 -0.3272 -0.6176
25456SOL    HW177809   3.426   5.201   7.741  0.7093 -0.0440 -0.8699
25456SOL    HW277810   3.314   5.135   7.665  3.0642 -2.7148 -2.2133
25457SOL     OW77811   1.118   5.873   5.855 -0.0641  0.4165 -0.6868
25457SOL    HW177812   1.110   5.943   5.920  0.8683  1.5607 -1.7569
25457SOL    HW277813   1.171   5.806   5.898 -0.1826  0.7790  0.0352
25458SOL     OW77814   7.535   2.288   7.191 -0.5871 -0.5664  0.3148
25458SOL    HW177815   7.450   2.249   7.171 -0.0480 -0.5225 -2.5878
25458SOL    HW277816   7.593   2.213   7.205 -0.9627 -0.6102  1.6840
25459SOL     OW77817   2.075   6.223   2.346  0.9481  0.0460 -0.3690
25459SOL    HW177818   2.160   6.180   2.338 -0.5386 -3.0681 -0.9493
25459SOL    HW277819   2.018   6.156   2.385 -1.3301  1.8905 -0.3054
25460SOL     OW77820   2.140   7.915   7.146 -0.3485 -0.4686  0.2303
25460SOL    HW177821   2.213   7.968   7.114 -1.0477 -0.9278 -2.3500
25460SOL    HW277822   2.063   7.957   7.108 -1.2703 -1.0159  1.4674
25461SOL     OW77823   7.794   6.341   5.516  0.5638 -0.5878 -0.7835
25461SOL    HW177824   7.784   6.323   5.609  1.3526 -0.5686 -0.6830
25461SOL    HW277825   7.766   6.261   5.472  0.4403 -0.6930 -0.5148
25462SOL     OW77826   1.173   6.202   2.982  0.0714  0.2921  0.1654
25462SOL    HW177827   1.129   6.131   2.935 -0.2357  0.2364  0.5287
25462SOL    HW277828   1.161   6.279   2.926 -0.4207  0.2587  0.2177
25463SOL     OW77829   4.692   0.100   3.886 -0.1812  0.0830  0.5462
25463SOL    HW177830   4.764   0.162   3.871 -0.3647 -0.0517 -1.1533
25463SOL    HW277831   4.734   0.014   3.885 -0.2271  0.0607  0.5435
25464SOL     OW77832   0.979   3.141   0.195 -0.1945  0.0174 -0.5361
25464SOL    HW177833   1.058   3.122   0.145 -0.8138  0.7253 -1.8794
25464SOL    HW277834   0.980   3.237   0.205 -1.4546  0.1953 -1.6952
25465SOL     OW77835   1.754   1.754  10.256 -0.0370 -0.6580 -0.5081
25465SOL    HW177836   1.698   1.802  10.317  1.7762  1.1858 -0.1730
25465SOL    HW277837   1.696   1.691  10.214 -2.1964  0.6941  0.2932
25466SOL     OW77838   5.019   0.625  11.166 -0.0759  0.1417  0.6624
25466SOL    HW177839   4.952   0.580  11.115  1.5084 -3.1487  1.2281
25466SOL    HW277840   4.977   0.648  11.248 -0.5389 -1.9687  1.0504
25467SOL     OW77841   3.585   1.264   6.763 -0.5994 -0.1970 -0.0571
25467SOL    HW177842   3.533   1.205   6.818  0.9572 -1.6700 -0.0887
25467SOL    HW277843   3.622   1.327   6.825  0.2608 -1.1921  0.4943
25468SOL     OW77844   7.076   5.913   0.654  0.0370 -0.3871 -0.0219
25468SOL    HW177845   7.011   5.937   0.719  0.7119  1.8358 -0.1162
25468SOL    HW277846   7.155   5.893   0.704  1.0544  2.9234 -0.1155
25469SOL     OW77847   7.911   7.409   7.951 -0.6650  0.8310 -0.3283
25469SOL    HW177848   7.981   7.402   8.016 -0.4995  1.3198 -0.4445
25469SOL    HW277849   7.941   7.478   7.892 -1.1414  0.8859 -0.5103
25470SOL     OW77850   4.378   1.178  11.856  0.1255 -0.0557  0.2985
25470SOL    HW177851   4.443   1.111  11.879  2.7463  1.4356 -2.1744
25470SOL    HW277852   4.359   1.161  11.764  1.0269  2.6351 -0.4530
25471SOL     OW77853   2.640   7.930  12.100 -0.0041 -0.3266  0.0976
25471SOL    HW177854   2.702   7.875  12.052 -0.4149 -1.6221  0.9834
25471SOL    HW277855   2.566   7.940  12.041  0.5547  0.2927 -0.5269
25472SOL     OW77856   3.281   0.792   7.023 -0.0400 -0.3285 -0.3574
25472SOL    HW177857   3.263   0.821   7.113 -1.6276 -0.2985 -0.6537
25472SOL    HW277858   3.233   0.709   7.015  1.5279 -1.2497 -0.6452
25473SOL     OW77859   4.777   4.248   9.649 -0.2171  0.1984 -0.5970
25473SOL    HW177860   4.743   4.251   9.560  0.3249  0.8830 -0.7876
25473SOL    HW277861   4.701   4.225   9.703 -0.6985  0.4499 -1.1580
25474SOL     OW77862   6.995   0.142   8.852 -0.3136  0.0876  0.0825
25474SOL    HW177863   7.057   0.071   8.873  0.0661  0.1703 -0.7158
25474SOL    HW277864   6.944   0.154   8.932 -0.4732 -1.1800  0.1885
25475SOL     OW77865   2.853   1.307   5.032 -0.3599  0.0201  0.3975
25475SOL    HW177866   2.794   1.304   5.107 -2.3980 -2.6167 -1.1304
25475SOL    HW277867   2.823   1.381   4.980 -1.8264 -0.7669  0.0834
25476SOL     OW77868   0.999   6.813   7.795 -0.1764 -0.3897  0.1583
25476SOL    HW177869   1.005   6.807   7.890  0.3983  0.8586  0.2186
25476SOL    HW277870   0.929   6.753   7.772  0.2976 -1.4112  1.2746
25477SOL     OW77871   7.218   0.902   5.329  0.0353 -0.1752  0.1250
25477SOL    HW177872   7.295   0.844   5.328 -0.8496 -1.5711  3.0991
25477SOL    HW277873   7.236   0.964   5.399 -0.9514  0.4165 -0.1366
25478SOL     OW77874   4.019   6.248   2.422 -0.3043 -0.1130  0.0583
25478SOL    HW177875   3.937   6.238   2.471 -0.0619 -0.3139  0.4249
25478SOL    HW277876   4.081   6.192   2.468 -0.0739 -0.3083 -0.4861
25479SOL     OW77877   4.703   7.695   5.494  0.0184 -0.0919  0.0422
25479SOL    HW177878   4.798   7.705   5.500 -0.0732  0.4433  0.6675
25479SOL    HW277879   4.668   7.781   5.517 -0.6195 -0.2304 -0.3653
25480SOL     OW77880   0.588   6.671   0.309 -0.2821  0.8384  0.1531
25480SOL    HW177881   0.529   6.634   0.375 -2.3803  0.2277 -1.8903
25480SOL    HW277882   0.552   6.757   0.290 -0.6358  0.4356 -1.1706
25481SOL     OW77883   1.614   4.773   4.172  0.4350  0.1755  0.1189
25481SOL    HW177884   1.558   4.726   4.110 -0.0607  1.9539 -0.8348
25481SOL    HW277885   1.610   4.864   4.144  0.1290  1.0718  2.8137
25482SOL     OW77886   4.517   7.393   1.632  0.4306  0.1094 -0.4104
25482SOL    HW177887   4.453   7.460   1.655  1.6176  1.3618 -0.6137
25482SOL    HW277888   4.487   7.359   1.548  1.1581  2.2480 -1.6179
25483SOL     OW77889   5.121   6.014   3.700  0.0010  0.0978 -0.0557
25483SOL    HW177890   5.033   6.039   3.672 -0.8407  0.0518  2.3785
25483SOL    HW277891   5.164   6.096   3.724 -0.2719 -0.1074  1.1609
25484SOL     OW77892   5.342   5.141   4.116 -0.1724 -0.5031  0.3366
25484SOL    HW177893   5.247   5.128   4.117 -0.3137  0.4242  0.4818
25484SOL    HW277894   5.355   5.222   4.165  0.8178 -1.2976  1.4156
25485SOL     OW77895   4.365   0.815  11.646 -0.6125  0.0410 -0.4379
25485SOL    HW177896   4.299   0.783  11.584 -0.3417 -0.8693 -0.2612
25485SOL    HW277897   4.326   0.804  11.732  0.3481 -2.0155 -0.2087
25486SOL     OW77898   3.147   6.379  11.692 -0.2371 -0.6493 -0.2360
25486SOL    HW177899   3.087   6.305  11.693  1.9415 -2.5582  1.8969
25486SOL    HW277900   3.211   6.359  11.760  1.9511  2.0031 -1.3254
25487SOL     OW77901   3.511   0.300   2.524 -0.6594  0.6308 -0.6817
25487SOL    HW177902   3.541   0.371   2.468 -0.2974  0.7694 -0.3199
25487SOL    HW277903   3.441   0.340   2.577 -0.1368  0.8501 -0.1505
25488SOL     OW77904   1.647   6.110   1.997 -0.6029 -0.2523 -0.2183
25488SOL    HW177905   1.560   6.147   1.984 -0.5615 -0.3587 -0.8158
25488SOL    HW277906   1.703   6.186   2.012 -1.0223 -0.2578  1.5587
25489SOL     OW77907   2.937   7.125   0.986  0.2409 -0.4047  0.5693
25489SOL    HW177908   2.851   7.102   0.952  0.0103  0.3160  0.6545
25489SOL    HW277909   2.932   7.106   1.079 -0.4915  1.4703  0.9507
25490SOL     OW77910   5.816   0.222   3.430 -0.7568  0.1573 -0.2655
25490SOL    HW177911   5.886   0.178   3.381 -0.8180 -0.6463  0.3431
25490SOL    HW277912   5.780   0.154   3.486  0.9097  1.5586  2.7284
25491SOL     OW77913   6.038   3.479   8.798 -0.2290  0.0366  0.3472
25491SOL    HW177914   6.048   3.420   8.723 -0.6831  0.0245  0.2912
25491SOL    HW277915   5.953   3.456   8.836 -0.7777  1.1667 -0.1366
25492SOL     OW77916   3.796   7.883   1.274 -0.0550  0.7845  0.6196
25492SOL    HW177917   3.830   7.926   1.353  0.2411  0.7886  0.4918
25492SOL    HW277918   3.701   7.892   1.281 -0.1487 -0.7697  1.8720
25493SOL     OW77919   5.912   2.267   1.665 -0.7599  0.0074 -0.0406
25493SOL    HW177920   5.894   2.175   1.651 -1.8930  0.2266 -0.0898
25493SOL    HW277921   5.938   2.300   1.579  3.3605 -0.9982  0.5956
25494SOL     OW77922   6.384   2.943   5.275  0.4527  0.1507 -0.1039
25494SOL    HW177923   6.374   3.005   5.347  0.1962 -1.2342  1.0795
25494SOL    HW277924   6.457   2.887   5.301 -0.9963 -1.7207  0.1311
25495SOL     OW77925   6.704   2.408   8.417 -0.1669 -0.0387  0.0036
25495SOL    HW177926   6.724   2.501   8.405 -0.2053  0.2820  2.1220
25495SOL    HW277927   6.749   2.384   8.498 -0.0396 -1.9255 -0.5805
25496SOL     OW77928   6.637   2.471   8.129 -0.3041  0.2991  0.7292
25496SOL    HW177929   6.606   2.405   8.191 -0.7493 -0.0413  0.1565
25496SOL    HW277930   6.558   2.519   8.104 -0.3240 -0.3094 -0.4322
25497SOL     OW77931   3.811   6.315   8.838 -0.1244  0.5428  0.2588
25497SOL    HW177932   3.720   6.338   8.821 -0.6951  1.2255  3.4576
25497SOL    HW277933   3.854   6.399   8.855  1.0402  0.2011 -0.9189
25498SOL     OW77934   2.945   4.340   6.606 -0.2624  0.0512  0.2522
25498SOL    HW177935   2.958   4.350   6.511 -0.4039 -0.5307  0.1724
25498SOL    HW277936   2.935   4.430   6.638 -0.0094  0.2645 -0.2549
25499SOL     OW77937   3.752   4.293  11.630  0.5580  0.1337  0.0666
25499SOL    HW177938   3.821   4.228  11.641 -0.3294 -0.7038  0.9175
25499SOL    HW277939   3.749   4.339  11.714  0.3355  0.4111 -0.0939
25500SOL     OW77940   6.111   5.035   8.191 -0.2285  1.2398  0.3041
25500SOL    HW177941   6.118   5.005   8.100 -0.5404 -0.4667  0.8174
25500SOL    HW277942   6.197   5.019   8.228 -1.0561 -1.5965  1.2821
25501SOL     OW77943   3.581   1.965   6.300 -0.4346 -0.4531 -0.0263
25501SOL    HW177944   3.635   2.006   6.232 -1.7193  0.2909 -0.6150
25501SOL    HW277945   3.632   1.976   6.381  0.7703 -0.7037 -0.7267
25502SOL     OW77946   4.663   5.064   9.455  0.3492 -0.2529  0.0763
25502SOL    HW177947   4.595   5.076   9.388 -0.3859  2.0840  1.1175
25502SOL    HW277948   4.740   5.108   9.419  1.3757 -2.7671 -1.0351
25503SOL     OW77949   0.214   2.151  10.773 -0.1139 -0.2783 -0.0467
25503SOL    HW177950   0.143   2.153  10.708  0.1611  0.2708 -0.3364
25503SOL    HW277951   0.292   2.132  10.721  0.2833  1.2240 -0.0564
25504SOL     OW77952   6.670   1.200   2.739  0.2026 -0.2206 -0.1541
25504SOL    HW177953   6.618   1.249   2.676 -0.2570 -0.2555  0.1877
25504SOL    HW277954   6.759   1.234   2.729 -0.1759  1.0194  0.3849
25505SOL     OW77955   5.600   2.104   7.118 -0.4065 -0.7290  0.3754
25505SOL    HW177956   5.573   2.137   7.204 -0.7630  0.3002 -0.1107
25505SOL    HW277957   5.582   2.177   7.058  1.2209 -0.8801 -0.3465
25506SOL     OW77958   0.904   3.937   2.980 -0.2686  0.4322  0.5810
25506SOL    HW177959   0.989   3.920   3.020  0.9503 -1.1620 -2.3844
25506SOL    HW277960   0.923   3.991   2.903 -1.8904 -0.1139 -0.2494
25507SOL     OW77961   7.463   4.543   1.096  0.3063 -0.1450 -0.0563
25507SOL    HW177962   7.518   4.619   1.113 -1.9338  1.3069  1.1942
25507SOL    HW277963   7.457   4.498   1.180 -1.2600  0.3597  0.1345
25508SOL     OW77964   4.410   3.294   3.735 -0.6133 -0.1788  0.1002
25508SOL    HW177965   4.346   3.356   3.769 -0.4639 -0.3056  0.6287
25508SOL    HW277966   4.387   3.211   3.777  0.6349  0.0276  1.2901
25509SOL     OW77967   5.596   1.193   5.180 -0.4031 -0.6677 -0.7209
25509SOL    HW177968   5.683   1.234   5.173 -0.3160 -1.0841 -2.5244
25509SOL    HW277969   5.596   1.153   5.267  0.5309  0.8179  0.0195
25510SOL     OW77970   3.591   6.167   6.001  0.1400  0.3568  0.1604
25510SOL    HW177971   3.614   6.254   6.032 -0.7868  0.3905  0.7882
25510SOL    HW277972   3.639   6.107   6.058  0.3477  0.4474  0.0805
25511SOL     OW77973   4.646   3.758   8.694  0.1294  0.4528 -0.1692
25511SOL    HW177974   4.640   3.677   8.644  1.2344  0.1204  0.2182
25511SOL    HW277975   4.728   3.752   8.742 -0.9944  0.6482  1.9044
25512SOL     OW77976   0.320   5.068   3.162 -0.1156 -0.5035 -0.1471
25512SOL    HW177977   0.389   5.134   3.171 -0.6920 -0.0873  1.9162
25512SOL    HW277978   0.367   4.986   3.148  0.7679 -0.0988  0.3621
25513SOL     OW77979   5.443   7.339  10.992  0.1116 -0.2093  1.0369
25513SOL    HW177980   5.491   7.304  10.917  0.7509 -0.3319  1.4989
25513SOL    HW277981   5.353   7.308  10.980  0.3574 -0.7833  0.6746
25514SOL     OW77982   7.344   0.999   8.728 -0.2183 -0.2174 -0.3522
25514SOL    HW177983   7.392   1.032   8.653 -0.7734  2.4115  0.3405
25514SOL    HW277984   7.291   0.928   8.693 -0.0903  0.5959 -2.3497
25515SOL     OW77985   0.634   4.438  10.447  0.4120 -0.0337 -0.5117
25515SOL    HW177986   0.544   4.405  10.440  0.2294  0.5921 -1.2795
25515SOL    HW277987   0.625   4.533  10.438  1.2202 -0.0240 -1.3854
25516SOL     OW77988   4.120   1.641   9.884  0.1419 -0.2489  0.0140
25516SOL    HW177989   4.214   1.629   9.872  0.2519 -0.4482  0.9638
25516SOL    HW277990   4.080   1.579   9.822  0.6892 -3.6882  2.7490
25517SOL     OW77991   5.060   7.228   5.657 -0.2197 -0.0634 -0.2373
25517SOL    HW177992   5.033   7.320   5.655  2.0612  0.6811 -2.0134
25517SOL    HW277993   5.155   7.232   5.648  0.0194 -2.6069  0.5753
25518SOL     OW77994   5.087   1.155   6.865 -0.1986  0.6017  0.4030
25518SOL    HW177995   5.083   1.080   6.806  0.7812  1.7453 -1.2298
25518SOL    HW277996   5.179   1.160   6.891 -0.5210  0.4378  1.6206
25519SOL     OW77997   1.165   3.836   6.115  0.0344  0.4295  0.6595
25519SOL    HW177998   1.226   3.764   6.132  1.0419  1.3268  0.9570
25519SOL    HW277999   1.196   3.908   6.170 -2.0565  0.5473  1.8004
25520SOL     OW78000   4.454   7.642   3.571  0.2977 -0.3151  0.2196
25520SOL    HW178001   4.364   7.670   3.587  0.2283 -1.1073  1.3337
25520SOL    HW278002   4.450   7.591   3.490 -0.0132  0.7041 -0.4285
25521SOL     OW78003   4.026   4.645   2.910  0.8839  0.7956 -0.4493
25521SOL    HW178004   4.100   4.592   2.942  1.0583  2.1635  1.5693
25521SOL    HW278005   4.033   4.727   2.959 -1.7516  1.1113 -0.4954
25522SOL     OW78006   3.686   5.189   6.154 -0.1415  0.5304 -0.3316
25522SOL    HW178007   3.592   5.197   6.137 -0.0786  2.6692  0.0456
25522SOL    HW278008   3.710   5.105   6.115 -2.1269  0.0986 -0.7591
25523NA      NA78009   3.820   3.225  10.435  0.3765 -0.0343 -0.2335
25524NA      NA78010   2.968   5.061  11.312  0.0539 -0.3430  0.8066
25525NA      NA78011   0.117   6.932   2.608 -0.1817 -0.1042 -0.0394
25526NA      NA78012   1.930   2.264   1.933 -0.2397 -0.1928  0.6872
25527NA      NA78013   4.243   1.143   5.038 -0.1418  0.4276 -0.2076
25528NA      NA78014   5.067   6.885   7.453 -0.0769 -0.2166 -0.6557
25529NA      NA78015   0.265   2.502   6.607 -0.3787 -0.0814 -0.3764
25530NA      NA78016   4.772   3.559   5.448  0.6848  0.2301  0.2284
25531NA      NA78017   1.852   5.160  11.673  0.5096 -0.1263  0.4886
25532NA      NA78018   5.143   2.746   8.831 -0.1786  0.0931 -0.2946
25533NA      NA78019   3.447   3.394   4.843 -0.5244  0.1063  0.6462
25534NA      NA78020   5.511   3.659   4.431 -0.0176 -0.3441  0.1504
25535NA      NA78021   0.756   1.157   5.821 -0.2293 -0.0119  0.3783
25536NA      NA78022   7.527   2.147   0.840  0.1206  0.6809  0.0863
25537NA      NA78023   3.513   0.141   8.293  0.2879  0.1273 -0.0985
25538NA      NA78024   5.324   6.934   8.402 -0.3411 -0.4252  0.1594
25539NA      NA78025   2.875   4.152   1.359 -0.2887 -0.0354  0.1165
25540NA      NA78026   3.317   1.205   1.175  0.2147  0.3117  0.3466
25541NA      NA78027   7.777   1.963   4.346 -0.6210 -0.0805  0.0599
25542NA      NA78028   3.496   5.882   7.029 -0.1859  0.1556  0.4922
25543NA      NA78029   2.749   1.248   8.492 -0.2217 -0.0720 -0.1809
25544NA      NA78030   7.326   4.970   0.676  0.2814 -0.0801 -0.3888
25545NA      NA78031   3.258   6.471   6.887  0.3662 -0.0219 -0.3256
25546NA      NA78032   7.699   6.199   1.485 -0.0622  0.5227 -0.3810
25547NA      NA78033   5.393   5.167   2.226  0.2815  0.0045  0.1168
25548NA      NA78034   3.937   3.146   7.737 -0.5076  0.0929  0.0044
25549NA      NA78035   7.888   0.063   3.226 -0.1027  0.2364  0.4159
25550NA      NA78036   4.328   4.577   5.722  0.4578  0.6207  0.4959
25551NA      NA78037   6.276   1.170   6.380 -0.1925  0.4670 -0.1990
25552NA      NA78038   2.916   2.915   5.103  0.3685  0.0834 -0.5082
25553NA      NA78039   7.176   0.743   4.850 -0.4676 -0.1824  0.3381
25554NA      NA78040   4.664   5.282   3.027  0.4699  0.2137  0.1700
25555NA      NA78041   0.745   3.720  10.845  0.5364  0.1059 -0.2353
25556NA      NA78042   1.400   1.087   8.778 -0.0264  0.0236 -0.0979
25557NA      NA78043   6.121   5.684   6.948  0.2978 -0.8382 -0.6384
25558NA      NA78044   5.059   3.269   9.300 -0.0288 -0.0857  0.1319
25559NA      NA78045   2.981   2.667   9.553  0.2012  0.4991 -0.5245
25560NA      NA78046   6.322   3.593  11.432  0.0647  0.2411  0.2715
25561NA      NA78047   2.597   4.785   8.487 -0.0520  0.4943  0.1349
25562NA      NA78048   6.323   0.168  10.854  0.1442 -0.1523 -0.2443
25563NA      NA78049   6.097   7.749   6.085  0.5914 -0.3127  0.1602
25564NA      NA78050   3.891   4.162   5.615 -0.0082  0.0394 -0.2365
25565NA      NA78051   3.493   0.854   6.908 -0.0211 -0.5233  0.2305
25566NA      NA78052   3.456   4.860   3.033  0.1235 -0.4182 -0.5283
25567NA      NA78053   2.311   3.985   3.756 -0.6097 -0.1973 -0.3651
25568NA      NA78054   4.758   3.820   2.691  0.3184 -0.5003 -0.4547
25569NA      NA78055   0.392   7.819   1.991  0.3974 -0.0584 -0.3171
25570NA      NA78056   4.340   6.782   3.057  0.2589 -0.0778 -0.5166
25571NA      NA78057   1.105   2.512   1.049  0.1252 -0.1763  0.7433
25572NA      NA78058   7.520   7.742   1.284  0.1780 -0.0218 -0.0737
25573NA      NA78059   2.658   1.271   0.582 -0.2568  0.4771 -0.1233
25574NA      NA78060   0.885   7.403   3.913  0.2936 -0.2499 -0.3130
25575NA      NA78061   2.709   1.370   5.834 -0.3398  0.2134 -0.3409
25576NA      NA78062   4.892   5.841   1.948  0.0222 -0.1800 -0.0554
25577NA      NA78063   1.063   2.079   9.644 -0.1598 -0.4854 -0.1291
25578NA      NA78064   7.219   7.484   6.511  0.4639  0.1735  0.2465
25579NA      NA78065   3.874   5.112   9.143 -0.0372  0.2276 -0.0313
25580NA      NA78066   6.510   0.671  12.328  0.4942 -0.2671 -0.1864
25581NA      NA78067   5.849   7.082   2.195  0.3093 -0.3260  0.5164
25582NA      NA78068   5.247   5.376   0.030  0.3588 -0.2245 -0.2066
25583NA      NA78069   0.439   1.427   1.562 -0.5156 -0.2520  0.3364
25584NA      NA78070   0.431   5.496  11.757 -0.0125  0.5282 -0.4524
25585NA      NA78071   2.564   3.990   6.428  0.0337 -0.2069 -0.0098
25586NA      NA78072   6.903   6.177   5.013  0.6537 -0.5080 -0.2169
25587NA      NA78073   3.634   4.231   6.292  0.1985  0.3328  0.1950
25588NA      NA78074   6.240   6.635   0.090 -0.0035 -0.0338  0.2688
25589NA      NA78075   2.373   3.667   4.446  0.1257  0.0558  0.0885
25590NA      NA78076   7.750   0.625   4.731 -0.1404 -0.6623 -0.3004
25591NA      NA78077   6.152   0.664   4.229  0.1078 -0.2460  0.2202
25592NA      NA78078   4.981   5.022   4.800  0.2866 -0.1140  0.2142
25593NA      NA78079   5.648   3.745   1.172  0.0895 -0.2241 -0.4595
25594NA      NA78080   3.452   4.058   4.283 -0.0313  0.4101  0.4681
25595NA      NA78081   6.753   7.528   9.025 -0.4029 -0.2352  0.2386
25596NA      NA78082   0.757   7.536   7.240  0.1087  0.6727 -0.4892
25597NA      NA78083   7.853   1.559  10.628 -0.1853 -0.2324  0.3147
25598NA      NA78084   4.010   4.688   2.683 -0.1278 -0.0450 -0.1864
25599NA      NA78085   4.437   3.487   4.882  0.0312  0.0009  0.0013
25600NA      NA78086   3.868   5.110  11.394 -0.1172  0.9562  0.4387
25601NA      NA78087   7.697   2.909   7.147  0.2392 -0.2115 -0.2009
25602NA      NA78088   3.110   1.479  12.345  0.1704  0.1159 -0.1572
25603NA      NA78089   0.161   1.835   7.760 -0.5804  0.0428  0.0217
25604NA      NA78090   0.350   1.845   8.554  0.1628 -0.0663 -0.0693
25605NA      NA78091   0.527   3.066   7.527  0.5755  0.1759 -0.4554
25606NA      NA78092   3.155   7.453   6.023  0.4707 -0.0221 -0.3072
25607NA      NA78093   4.463   2.141   8.970  0.0275  0.1170  0.5255
25608NA      NA78094   7.208   3.519  12.054 -0.0468  0.8829  0.0843
25609NA      NA78095   1.824   6.022   8.289 -0.4251 -0.0934  0.5888
25610NA      NA78096   4.750   1.277   0.352 -0.0882 -0.0636  0.1774
25611NA      NA78097   5.281   7.886   8.689 -0.1894 -0.7112  0.0408
25612NA      NA78098   7.173   5.957   1.941  0.1401  0.5060 -0.0281
25613NA      NA78099   7.876   6.845   7.508 -0.0209  0.6752  0.0516
25614NA      NA78100   3.337   2.225   3.040 -0.0664 -0.2381 -0.0974
25615NA      NA78101   6.359   3.975   6.090  0.2870  0.2673 -0.3993
25616NA      NA78102   0.110   3.096   9.744  0.3921  0.2129 -0.3842
25617NA      NA78103   4.066   3.914   6.969 -0.1735  0.3511  0.1033
25618NA      NA78104   3.284   4.938   9.882 -0.0337  0.0155  0.1276
25619NA      NA78105   5.125   3.991   5.125 -0.2964  0.3758 -0.1931
25620NA      NA78106   3.490   5.027   4.891 -0.5089  0.1335 -0.1058
25621NA      NA78107   6.844   7.060   7.215 -0.3326  0.6550  0.3081
25622NA      NA78108   3.605   5.239   4.091  0.1529  0.3167 -0.3976
25623NA      NA78109   6.735   7.558   4.748  0.0470  0.0722 -0.0702
25624NA      NA78110   7.141   6.034   8.678  0.3424  0.2280 -0.1788
25625NA      NA78111   1.803   5.572   6.997 -0.2520  0.6478 -0.0551
25626NA      NA78112   5.387   2.225   0.868  0.4743  0.0721 -0.3767
25627NA      NA78113   1.361   3.082   1.468  0.3788 -0.4012 -0.1422
25628NA      NA78114   3.573   4.312  10.230  0.0238  0.1372 -0.0535
25629NA      NA78115   5.734   7.598   5.101 -0.1016  0.2009 -0.0804
25630NA      NA78116   1.998   4.998   2.247 -0.2782  0.0657 -0.0988
25631NA      NA78117   3.351   2.408   6.974 -0.6321  0.2117  0.1496
25632NA      NA78118   6.185   5.024   4.906 -0.1899  0.0070  0.1491
25633NA      NA78119   5.196   6.238  10.577 -0.1690 -0.0274  0.2232
25634NA      NA78120   4.283   0.134   0.286  0.0902 -0.0187 -0.3032
25635NA      NA78121   2.852   7.914   0.146  0.1356 -0.3049 -0.1728
25636NA      NA78122   4.332   3.435   1.749  0.0156 -0.1613  0.3966
25637NA      NA78123   7.025   0.699   3.289  0.1767 -0.1282  0.5501
25638NA      NA78124   4.062   3.949   8.765  0.8970  0.6603  0.2130
25639NA      NA78125   5.703   0.541   6.589  0.0648 -0.2201 -0.3025
25640NA      NA78126   1.134   6.061   5.473  0.1296  0.0414  0.1918
25641NA      NA78127   7.750   4.054   0.779  0.2487 -0.3853  0.0757
25642NA      NA78128   6.921   1.297   3.358 -0.0402  0.0341 -0.3443
25643NA      NA78129   4.679   1.021   5.706 -0.2328 -0.1166 -0.4041
25644NA      NA78130   7.588   7.146  10.322 -0.1360 -0.4235  0.4256
25645NA      NA78131   6.046   3.047   4.161  0.1853  0.3786 -0.3371
25646NA      NA78132   4.377   2.448   6.904  0.0181  0.4044  0.8115
25647NA      NA78133   7.790   0.601  12.268  0.6682  0.6991 -0.0842
25648NA      NA78134   3.343   6.538  11.636  0.2081  0.0999  0.2233
25649NA      NA78135   0.224   7.541   8.687  0.2310  0.1166  0.2388
25650NA      NA78136   0.337   1.104   2.303  0.1128 -0.2462 -0.0394
25651NA      NA78137   1.072   2.340   4.793  0.5831  1.0553 -0.2701
25652NA      NA78138   2.147   3.401  10.992 -0.3491 -0.1795 -0.1924
25653NA      NA78139   4.676   4.906   9.627 -0.5925 -0.2742 -0.2624
25654NA      NA78140   0.435   4.363   1.182 -0.0466  0.3461  0.1774
25655NA      NA78141   3.848   4.393   4.070  0.3171 -0.7347 -0.3291
25656NA      NA78142   4.980   5.672   9.288 -0.2168 -0.2766 -0.4999
25657NA      NA78143   2.777   3.539   7.376  0.3146  0.2705 -0.4068
25658NA      NA78144   3.193   2.013  10.553  0.4378 -0.8106  0.6603
25659NA      NA78145   0.265   3.822  11.304 -0.5334  0.0557  0.5241
25660NA      NA78146   2.242   4.377   0.398 -0.0309 -0.5848 -0.2004
25661NA      NA78147   1.402   0.463   5.224 -0.3618  0.5597  0.3447
25662NA      NA78148   6.290   5.033   3.318  0.1878 -0.3466 -0.2343
25663NA      NA78149   6.756   2.839   7.642 -0.4241  0.2184  0.1656
25664NA      NA78150   5.312   7.621   3.557 -0.5477 -0.4831 -0.0680
25665NA      NA78151   2.370   0.306   6.318  0.8534 -0.0507 -0.0740
25666NA      NA78152   1.759   4.909   3.632 -0.1322 -0.2731 -0.2674
25667NA      NA78153   1.545   4.239   7.466  0.1098  0.6641  0.6428
25668NA      NA78154   2.439   4.745   9.743  0.2718  0.2664 -0.4597
25669NA      NA78155   3.376   0.826  10.906  0.0744  0.1292  0.2909
25670NA      NA78156   3.044   3.638   4.403  0.2307  0.2672  0.7600
25671NA      NA78157   0.966   7.913   4.896  0.4391 -0.2380  0.2488
25672NA      NA78158   4.915   1.380   6.536 -0.3247 -0.0828 -0.3194
25673NA      NA78159   1.246   1.921  11.487  0.7042 -0.3691 -0.7364
25674NA      NA78160   7.859   5.297   1.437  0.1925 -0.1265 -0.1183
25675NA      NA78161   2.075   4.552   8.816  0.2947  0.3034 -0.0862
25676NA      NA78162   1.393   3.251   0.661 -0.1003 -0.1171 -0.2295
25677NA      NA78163   0.820   6.664   0.291 -0.4476 -0.0106 -0.0698
25678NA      NA78164   3.053   6.840  10.252 -0.0293 -0.3369 -0.3275
25679NA      NA78165   6.649   0.963   4.964  0.1205 -0.0325 -0.2254
25680NA      NA78166   1.517   2.497  11.251  0.2734  0.2197  0.3655
25681NA      NA78167   4.273   2.954   4.626  0.9349  0.1055 -0.1587
25682NA      NA78168   6.011   7.698   3.050 -0.0615 -0.0045  0.2324
25683NA      NA78169   6.630   6.953  12.200  0.2724 -0.8742 -0.1442
25684NA      NA78170   0.297   7.184   9.687 -0.2645 -0.0892  0.1156
25685NA      NA78171   5.334   6.233   6.708  0.1575 -0.0296 -0.4447
25686NA      NA78172   4.791   0.886   2.209 -0.3235  0.2463  0.5638
25687NA      NA78173   1.603   2.074   3.510 -0.6267 -0.0856  0.2921
25688NA      NA78174   3.522   5.100   6.830 -0.4940  0.6853 -0.2172
25689NA      NA78175   0.876   1.465   0.397  0.1300  0.0013 -0.1398
25690NA      NA78176   3.514   4.277   0.542  0.2056  0.1677  0.3970
25691NA      NA78177   1.966   2.689  10.663  0.0482 -0.2069 -0.3960
25692NA      NA78178   0.898   7.526  11.085 -0.2640  0.0472  0.9212
25693NA      NA78179   3.429   0.988   7.551 -0.6631  0.0523  0.0417
25694NA      NA78180   3.862   7.455   1.187 -0.5071  0.3753 -0.2143
25695NA      NA78181   6.783   3.908   1.501 -0.3517 -0.1004 -0.1590
25696NA      NA78182   5.905   3.615  10.042  0.1976 -0.0507  0.1438
25697NA      NA78183   1.583   1.625   6.415  0.6256  0.2777  0.7540
25698NA      NA78184   5.392   1.865   9.495 -0.4182 -0.3308  0.3515
25699NA      NA78185   5.938   4.360   7.976  0.2295  0.6741 -0.1880
25700NA      NA78186   5.835   5.533   5.300 -0.3965  0.3691 -0.1311
25701NA      NA78187   6.098   1.569   7.494  0.7491 -0.0591  0.0398
25702NA      NA78188   3.741   7.249   9.810 -0.3852 -0.3765  0.1937
25703NA      NA78189   0.132   1.155   9.438  0.4386  0.4706  0.2495
25704NA      NA78190   4.798   3.848   7.983  0.4354 -0.8778  0.1892
25705NA      NA78191   6.566   4.905   9.074  0.4101 -0.3640  0.0732
25706NA      NA78192   2.658   0.596   4.274  0.3828  0.0023  0.1359
25707NA      NA78193   6.470   5.818   6.423 -0.0740 -0.0852 -0.1527
25708NA      NA78194   7.823   4.361  11.412 -0.8067 -0.0438 -0.3031
25709NA      NA78195   1.672   3.067   6.150 -0.3560  0.4368 -0.0109
25710NA      NA78196   3.181   4.299   6.717 -0.0832  0.0898  0.1317
25711NA      NA78197   1.936   0.678   4.155  0.4021 -0.0126 -0.1101
25712NA      NA78198   2.638   6.777   6.487  0.1957 -0.3073 -0.2307
25713NA      NA78199   7.531   2.330   7.627  0.0367  0.3773 -0.2253
25714NA      NA78200   2.266   0.066   5.696  0.3068 -0.6948  0.2192
25715NA      NA78201   6.611   3.018   3.893  0.4115  0.0909  0.0265
25716NA      NA78202   4.214   0.508  10.655 -0.1574  0.7174  0.0631
25717NA      NA78203   5.890   5.866  12.156 -0.0891 -0.2160 -0.7629
25718NA      NA78204   4.415   4.970   6.208 -0.3918 -0.7018 -0.2396
25719NA      NA78205   5.419   6.966  11.339  0.0110 -0.4541  0.0906
25720NA      NA78206   7.859   3.920   8.024  0.3938  0.0248 -0.1766
25721NA      NA78207   1.048   7.880   8.538 -0.1402  0.1285 -0.1435
25722NA      NA78208   0.644   4.143   4.700  0.1345  0.0670  0.5801
25723NA      NA78209   7.372   0.697  10.219 -0.2444 -0.3291 -0.1052
25724NA      NA78210   3.663   3.795  11.335  0.0069  0.1897 -0.2004
25725NA      NA78211   4.049   7.904   2.283  0.0309  0.8134  0.1486
25726NA      NA78212   3.524   2.577   4.863 -0.0466 -0.1169 -0.4073
25727NA      NA78213   1.344   4.083   0.851 -0.3227 -0.1713  0.5733
25728NA      NA78214   0.675   5.465   8.881  0.1757  0.0076 -0.5499
25729NA      NA78215   4.828   6.469   3.065  0.5355  0.0640  0.2498
25730NA      NA78216   2.388   5.275  11.814  0.3969  0.4188 -0.0790
25731NA      NA78217   1.411   7.357   0.587 -0.3113  0.5184  0.2015
25732NA      NA78218   6.546   4.462   5.691 -0.4238 -0.2585  0.0358
25733NA      NA78219   5.122   5.636   6.600 -0.1614  0.2358  0.3820
25734NA      NA78220   5.331   0.897   1.608 -0.1469  0.1454  0.3131
25735NA      NA78221   0.493   6.210   5.396  0.0829  0.0950  0.1011
25736NA      NA78222   1.273   2.920  10.773  0.1445 -0.1338 -0.1314
25737NA      NA78223   2.701   7.237   4.261 -0.2101  0.6197 -0.0125
25738NA      NA78224   0.296   5.202   1.595  0.0908  0.2581 -0.3234
25739NA      NA78225   4.733   1.583   9.028  0.3979 -0.2974  0.1543
25740NA      NA78226   1.371   6.312  12.239 -0.2147 -0.1806  0.5472
25741NA      NA78227   2.768   0.550   5.469  0.3291  0.4045  0.3506
25742NA      NA78228   6.641   6.877   3.859 -0.0216 -0.2237 -0.1820
25743NA      NA78229   3.740   3.142   0.972  0.0577  0.1920  0.3459
25744NA      NA78230   3.068   3.810   9.835 -0.0181  0.0417  0.0680
25745NA      NA78231   4.624   7.022  11.773  0.4360 -0.0212 -0.3141
25746NA      NA78232   2.660   0.891   1.462  0.0245 -0.3259  0.1341
25747NA      NA78233   5.021   0.674   0.352 -0.5717 -0.1203  0.1765
25748NA      NA78234   1.448   6.973  10.520  0.1249  0.1720 -0.5224
25749NA      NA78235   6.922   7.361  10.699 -0.1310  0.2238 -0.1825
25750NA      NA78236   3.252   3.093   7.870  0.2220  0.0241  0.4481
25751NA      NA78237   4.936   2.634   5.933  0.4039  0.5599  0.2481
25752NA      NA78238   5.624   4.462   1.890 -0.6494  0.2734 -0.2963
25753NA      NA78239   2.130   3.137   6.678  0.0694  0.2449  0.2225
25754NA      NA78240   4.588   7.138   7.092 -0.2193 -0.2204 -0.2284
25755NA      NA78241   3.860   3.680   8.055  0.0322 -0.0017  0.1808
25756NA      NA78242   7.539   2.638   3.162 -0.1602 -0.4180  0.4505
25757NA      NA78243   3.383   6.113   5.900 -0.3153 -0.3860  0.0975
25758NA      NA78244   5.492   5.765   3.668  0.0628  0.2438  0.2549
25759NA      NA78245   6.428   5.711   4.487  0.2855  0.0007  0.3260
25760NA      NA78246   7.575   4.551   7.041  0.0545 -0.2287  0.1781
25761NA      NA78247   6.204   6.831  10.994 -0.2646  0.5681  0.2021
25762NA      NA78248   3.168   7.907   2.326  0.1048 -0.3393 -0.2386
25763NA      NA78249   3.148   7.888  10.500 -0.2441 -0.1725  0.0411
25764NA      NA78250   3.700   5.374   8.365  0.1110  0.0567 -0.3528
25765NA      NA78251   2.558   4.488   3.890 -0.7553  0.1688  0.2000
25766NA      NA78252   0.491   3.862   2.670  0.1460 -0.4950 -0.0224
25767NA      NA78253   3.110   3.094   8.789 -0.1487 -0.1547  0.2299
25768NA      NA78254   4.116   4.142   3.521 -0.3031  0.2923  0.0918
25769NA      NA78255   0.461   2.767   8.741  0.5460  0.1915  0.0243
25770NA      NA78256   2.990   5.573   1.241  0.1757  0.3422  0.1047
25771NA      NA78257   3.848   1.070   3.862  0.4022  0.0839  0.0602
25772NA      NA78258   4.027   2.246  10.011 -0.2142  0.3206 -0.2493
25773NA      NA78259   1.986   1.248   0.787 -0.2432  0.0369  0.2722
25774NA      NA78260   1.242   5.988   1.774  0.5640 -0.6889  0.1905
25775NA      NA78261   1.963   4.927   4.700  0.4816  0.0582  0.0730
25776NA      NA78262   5.259   2.919   3.036 -0.1997  0.1535  0.1918
25777NA      NA78263   5.987   3.075   3.413  0.0202 -0.0118 -0.5690
25778NA      NA78264   3.686   2.814   7.353 -0.1893  0.2076  0.4466
25779NA      NA78265   4.733   3.136   1.977 -0.2705 -0.0849 -0.6071
25780NA      NA78266   3.145   3.292   2.093  0.3705 -0.0711  0.2993
25781NA      NA78267   0.594   1.675  10.774  0.2106  0.4711 -0.2752
25782NA      NA78268   7.435   0.372   0.230 -0.0805  0.1066 -0.1994
25783NA      NA78269   2.843   3.328   3.867 -0.6715 -0.0922  0.5109
25784NA      NA78270   1.949   2.381   7.850  0.2631 -0.0166 -0.1741
25785NA      NA78271   6.128   0.183   8.086 -0.2500 -0.0634 -0.2606
25786NA      NA78272   4.228   4.866   3.212  0.7119 -0.2816  0.2252
25787NA      NA78273   0.859   0.813  10.957  0.2280 -0.1473  0.2487
25788CL      CL78274   0.382   4.385  11.796 -0.2965  0.4458 -0.0689
25789CL      CL78275   5.551   5.905   5.468 -0.2025  0.2372  0.6074
25790CL      CL78276   3.671   4.925   2.425  0.3470 -0.3574 -0.2630
25791CL      CL78277   5.566   5.262   3.706 -0.0763  0.1126  0.1903
25792CL      CL78278   1.476   2.696   8.473  0.1467  0.1369  0.0720
25793CL      CL78279   7.012   0.217   9.627 -0.0416 -0.0940 -0.2860
25794CL      CL78280   4.706   6.868   8.025 -0.0927 -0.1152 -0.3314
25795CL      CL78281   4.020   1.419   9.689  0.1253  0.0714  0.1046
25796CL      CL78282   7.723   3.052   6.209 -0.1499  0.0666  0.2689
25797CL      CL78283   6.613   1.175  12.186  0.0834 -0.0695  0.1647
25798CL      CL78284   2.366   4.744  10.810  0.0529  0.1625  0.1155
25799CL      CL78285   2.160   7.690   0.115 -0.0711 -0.0776 -0.0018
25800CL      CL78286   4.481   0.358   9.171 -0.0910  0.1721  0.6253
25801CL      CL78287   3.302   0.319  10.786 -0.1426 -0.0512 -0.0145
25802CL      CL78288   2.032   2.868   4.487 -0.0569  0.0518  0.0362
25803CL      CL78289   0.991   1.441  11.029 -0.0028  0.0328  0.3071
25804CL      CL78290   7.112   2.313   1.870  0.1661  0.3377 -0.1712
25805CL      CL78291   6.422   7.456   3.223 -0.0671 -0.0509  0.0518
25806CL      CL78292   3.618   2.428  11.277  0.2803  0.3093 -0.5683
25807CL      CL78293   4.200   6.620  11.482  0.0759  0.1258  0.2317
25808CL      CL78294   0.671   5.970   1.576 -0.2632  0.0356  0.1708
25809CL      CL78295   4.135   0.728   9.343 -0.1558  0.0877  0.2930
25810CL      CL78296   4.503   5.001   1.970  0.0512 -0.3063  0.2079
25811CL      CL78297   7.034   2.947   7.649  0.0489  0.1208  0.5541
25812CL      CL78298   6.435   7.379   6.976 -0.2976 -0.3269  0.1071
25813CL      CL78299   6.316   1.109   3.624  0.2154  0.3996 -0.1941
25814CL      CL78300   6.861   6.541  12.389  0.1629 -0.0379 -0.4943
25815CL      CL78301   5.404   2.904   9.408  0.4431 -0.3555 -0.2446
25816CL      CL78302   4.291   1.880   0.539 -0.2834 -0.2776  0.1172
25817CL      CL78303   3.702   4.313  10.472 -0.3168 -0.4832 -0.0997
25818CL      CL78304   4.281   6.605   9.322  0.0298  0.2169 -0.0201
25819CL      CL78305   5.475   5.050   3.307 -0.1594 -0.1622  0.0071
25820CL      CL78306   3.230   2.314   9.655  0.1667 -0.1141  0.2551
25821CL      CL78307   1.367   4.976   4.448 -0.0493  0.3431 -0.5074
25822CL      CL78308   6.228   5.371   5.202  0.2414  0.3616  0.1632
25823CL      CL78309   3.431   0.986   9.889  0.0767 -0.5991  0.3237
25824CL      CL78310   1.379   4.738   0.680 -0.2107 -0.3671  0.0909
25825CL      CL78311   1.497   5.151   8.707 -0.1286  0.4519 -0.3795
25826CL      CL78312   1.934   5.568  11.391 -0.0260  0.0631  0.5689
25827CL      CL78313   0.819   1.226   2.190 -0.2340 -0.2394 -0.5023
25828CL      CL78314   0.662   3.986   1.381 -0.4224 -0.0038 -0.2459
25829CL      CL78315   3.888   6.808  10.167 -0.0610 -0.1215 -0.3651
25830CL      CL78316   6.542   3.696   9.718  0.0993 -0.2024 -0.2479
25831CL      CL78317   1.897   3.666   0.916  0.1810  0.4426  0.2911
25832CL      CL78318   5.417   1.282   8.069 -0.3382 -0.0913  0.4364
25833CL      CL78319   0.347   3.899   9.344  0.3174  0.3170 -0.2478
25834CL      CL78320   5.508   7.586   6.737 -0.1451  0.2459  0.1739
25835CL      CL78321   0.815   7.512  12.077 -0.0278 -0.1844 -0.0278
25836CL      CL78322   6.094   6.739   7.396  0.0783  0.0548  0.1543
25837CL      CL78323   6.382   6.790   5.652  0.6253  0.1711 -0.0926
25838CL      CL78324   7.868   1.164   9.924 -0.2634 -0.0906  0.3327
25839CL      CL78325   0.197   6.993   3.244 -0.4331  0.0994 -0.1512
25840CL      CL78326   3.039   4.327   2.049 -0.2533  0.2468 -0.3962
25841CL      CL78327   0.925   7.894   4.337  0.2833  0.3890  0.3074
25842CL      CL78328   5.866   4.296   0.670 -0.2811 -0.1283  0.2240
25843CL      CL78329   1.752   5.755  11.821 -0.5310 -0.2263  0.2903
25844CL      CL78330   0.866   2.110   9.436  0.0110 -0.2621  0.0068
25845CL      CL78331   7.188   6.078   3.485  0.0166  0.0202 -0.0371
25846CL      CL78332   7.369   7.416  10.603  0.1860 -0.0967 -0.3935
25847CL      CL78333   6.932   6.944   9.814 -0.3195  0.1148  0.1385
25848CL      CL78334   3.229   5.543   4.680 -0.6014  0.1161 -0.0133
25849CL      CL78335   0.378   4.657  10.232 -0.4595 -0.1775 -0.2460
25850CL      CL78336   4.466   7.464   3.342 -0.1181  0.2636  0.5704
25851CL      CL78337   7.514   7.719   3.296 -0.2626  0.0518 -0.0379
25852CL      CL78338   1.119   2.634   1.552  0.0763  0.2288  0.0396
25853CL      CL78339   1.839   7.936   5.657 -0.2167 -0.4781 -0.0992
25854CL      CL78340   0.785   4.530   0.448  0.1850  0.1787 -0.1088
25855CL      CL78341   1.962   3.531  12.230  0.3649 -0.0348 -0.4216
25856CL      CL78342   0.581   6.760  12.235  0.0683  0.1887  0.0966
25857CL      CL78343   1.993   0.003   2.067  0.1218  0.0689 -0.0586
25858CL      CL78344   2.522   1.296   9.685  0.0184  0.3387  0.1428
25859CL      CL78345   6.662   7.712   1.008  0.0225 -0.1501 -0.0803
25860CL      CL78346   3.514   4.752   0.715  0.0892 -0.1623 -0.2003
25861CL      CL78347   4.810   4.748   0.821  0.4425 -0.2901 -0.1205
25862CL      CL78348   6.867   4.572   5.337 -0.4887  0.0628  0.2352
25863CL      CL78349   4.715   2.271   9.424  0.1618  0.0572  0.0940
25864CL      CL78350   2.676   7.757   5.950  0.2600 -0.0032  0.1596
25865CL      CL78351   4.712   5.428  10.550  0.1012  0.2532  0.0862
25866CL      CL78352   0.702   2.486   6.711  0.1590 -0.1060  0.0042
25867CL      CL78353   1.962   3.701   7.383  0.2371  0.1926 -0.4200
25868CL      CL78354   7.901   0.642   8.127  0.2295 -0.6832  0.3285
25869CL      CL78355   7.229   3.957   1.603 -0.1525  0.2199  0.1475
25870CL      CL78356   6.049   4.500   7.771  0.0489  0.4371  0.1012
25871CL      CL78357   6.024   7.368  11.458 -0.5138  0.0491  0.4825
25872CL      CL78358   6.106   2.126  12.312  0.2490 -0.6073 -0.1150
25873CL      CL78359   5.260   0.344   3.128 -0.1921  0.0464 -0.2495
25874CL      CL78360   2.620   3.978   0.548 -0.3353 -0.0441  0.0136
25875CL      CL78361   6.051   7.623   8.119  0.0087  0.3689  0.2105
25876CL      CL78362   7.608   2.366   4.586 -0.1302  0.3837 -0.4972
25877CL      CL78363   0.795   4.615  11.018  0.4823  0.4759  0.2228
25878CL      CL78364   3.089   7.534  10.194 -0.2307 -0.0414  0.3117
25879CL      CL78365   4.952   4.158   0.338 -0.0259  0.0853 -0.1862
25880CL      CL78366   5.776   1.033   0.196 -0.5517  0.0219 -0.2468
25881CL      CL78367   5.672   7.737   5.764  0.2683  0.2277  0.0013
25882CL      CL78368   4.535   0.945  12.015  0.0829  0.0365 -0.1789
25883CL      CL78369   0.486   5.392   1.161 -0.1659  0.0469 -0.2878
25884CL      CL78370   6.059   5.261   1.970  0.0029 -0.2206 -0.2585
25885CL      CL78371   5.925   4.843   4.324  0.5107  0.0302 -0.0333
25886CL      CL78372   2.562   1.271   5.245 -0.2821 -0.0371  0.1186
25887CL      CL78373   4.941   1.827   6.369 -0.1221  0.0749  0.4900
25888CL      CL78374   6.682   6.782   0.726  0.4795 -0.1189  0.0885
25889CL      CL78375   2.110   1.141  11.874 -0.2611 -0.3879 -0.3700
25890CL      CL78376   6.969   0.258   5.779 -0.2225  0.2121 -0.0189
25891CL      CL78377   5.015   3.191   3.756  0.2228  0.1997 -0.0519
25892CL      CL78378   1.397   3.101  10.337  0.0652 -0.2203 -0.4966
25893CL      CL78379   0.447   1.254   9.054  0.0420 -0.0617 -0.2264
25894CL      CL78380   5.228   7.245   6.249  0.3139 -0.1456  0.1310
25895CL      CL78381   4.671   1.296   6.452 -0.3285  0.1575  0.4015
25896CL      CL78382   0.027   5.705   9.121  0.2069 -0.3599 -0.0687
25897CL      CL78383   3.572   4.442   3.768  0.0181 -0.0379 -0.0011
25898CL      CL78384   3.568   7.332   7.332 -0.1387 -0.0421 -0.0643
25899CL      CL78385   3.474   0.376   7.788  0.5218  0.4133 -0.0171
25900CL      CL78386   6.660   7.910  10.248  0.0586  0.3169  0.1180
25901CL      CL78387   1.318   6.898   0.593  0.1371  0.4995  0.2854
25902CL      CL78388   5.748   3.565  11.818 -0.2152  0.1659  0.2107
25903CL      CL78389   3.243   6.172   5.648  0.0913 -0.2276 -0.2618
25904CL      CL78390   7.563   6.188   0.743  0.0175 -0.1309  0.0900
25905CL      CL78391   5.187   6.157   7.657 -0.0061 -0.3366  0.0154
25906CL      CL78392   2.606   0.385   8.357  0.0030 -0.4352 -0.1731
25907CL      CL78393   0.127   1.132  12.374 -0.0634  0.0849 -0.3874
25908CL      CL78394   5.268   6.732   3.097 -0.7048 -0.0964 -0.3081
25909CL      CL78395   7.817   6.021   5.552 -0.2209 -0.2417 -0.3166
25910CL      CL78396   0.574   6.190   5.121 -0.1994  0.0748 -0.0506
25911CL      CL78397   2.616   0.608   0.324 -0.3567 -0.0648 -0.2884
25912CL      CL78398   6.090   5.395   5.707  0.0184  0.0201  0.0683
25913CL      CL78399   1.979   5.986   0.666  0.0627 -0.0335 -0.2784
25914CL      CL78400   3.848   0.601   1.568  0.1502 -0.0267 -0.2094
25915CL      CL78401   6.381   1.616   1.038  0.0717  0.0761  0.4544
25916CL      CL78402   0.425   0.752   4.177 -0.1891  0.0282  0.0495
25917CL      CL78403   6.865   4.000   2.005  0.0561  0.3392  0.1299
25918CL      CL78404   5.330   5.173   7.578  0.1873 -0.1528 -0.0269
25919CL      CL78405   4.824   0.157  12.192 -0.2746 -0.2137 -0.4359
25920CL      CL78406   6.231   7.003   3.379 -0.0998 -0.1253 -0.5952
25921CL      CL78407   7.187   4.773   6.442  0.2616  0.2966  0.5439
25922CL      CL78408   2.841   2.000   4.510 -0.0415  0.0300 -0.0859
25923CL      CL78409   0.011   1.163   2.015 -0.0396  0.3105 -0.2354
25924CL      CL78410   3.000   0.831   4.247 -0.0208  0.2943 -0.1259
25925CL      CL78411   2.276   0.546   5.628 -0.4900 -0.0567  0.4782
25926CL      CL78412   1.428   0.590   1.710  0.8635 -0.1792  0.3380
25927CL      CL78413   7.175   1.688   3.477  0.5478 -0.2973 -0.3474
25928CL      CL78414   1.299   0.381   4.033 -0.0593  0.2464 -0.0307
25929CL      CL78415   5.292   7.636   0.710  0.2210  0.2075 -0.2491
25930CL      CL78416   7.831   1.847   7.339 -0.0150  0.3735  0.8370
25931CL      CL78417   7.797   2.290   8.449  0.2675 -0.0262  0.1095
25932CL      CL78418   5.206   5.766   2.416  0.2822 -0.0019  0.2076
25933CL      CL78419   7.927   2.763   7.948  0.0752  0.1785  0.1992
25934CL      CL78420   1.639   3.999   3.692  0.4103 -0.1861  0.2188
25935CL      CL78421   7.823   3.338   9.350  0.2200 -0.0174  0.0099
25936CL      CL78422   0.924   6.647   8.061  0.1794  0.1252 -0.0394
25937CL      CL78423   7.405   6.692   6.655  0.0022  0.4292 -0.0220
25938CL      CL78424   6.164   3.950   6.270 -0.3370 -0.0583  0.3073
25939CL      CL78425   5.078   4.998   3.032 -0.2742  0.0820  0.2254
25940CL      CL78426   5.875   7.764   4.432 -0.0718 -0.2884  0.2399
25941CL      CL78427   0.692   0.955   0.727 -0.2291 -0.2000  0.0588
25942CL      CL78428   1.591   2.061   8.910  0.1197 -0.0976 -0.0126
25943CL      CL78429   1.047   2.475   5.293 -0.3970  0.1973  0.3589
25944CL      CL78430   0.893   1.491  10.488  0.1867  0.0302  0.5480
25945CL      CL78431   2.237   5.107   9.192  0.0651 -0.2193 -0.0408
25946CL      CL78432   3.086   3.147   4.549 -0.2916 -0.3602 -0.2810
25947CL      CL78433   6.505   0.968   4.724 -0.0286  0.2477  0.2465
25948CL      CL78434   4.632   2.103   8.511  0.3663 -0.5374 -0.0667
25949CL      CL78435   3.452   7.675   5.763 -0.4367 -0.0344  0.3058
25950CL      CL78436   4.057   5.533  11.664 -0.0497 -0.4701  0.0576
25951CL      CL78437   2.873   1.576   0.006 -0.1722  0.0701  0.2432
25952CL      CL78438   7.630   5.720   1.643  0.2828 -0.3580 -0.0475
25953CL      CL78439   1.062   3.108  11.253  0.0326  0.2349 -0.0234
25954CL      CL78440   0.274   7.724   6.162 -0.2530 -0.2342  0.3197
25955CL      CL78441   2.140   3.851   6.146 -0.2435 -0.1769  0.1409
25956CL      CL78442   4.556   6.849   9.570 -0.1660 -0.3215 -0.2019
25957CL      CL78443   2.565   2.530   1.541 -0.2944 -0.1948  0.1596
25958CL      CL78444   3.869   1.402  11.493 -0.1931  0.2413  0.0662
25959CL      CL78445   4.363   2.228  10.260  0.0111 -0.2648  0.0494
25960CL      CL78446   3.844   1.085   1.482  0.1722  0.0531 -0.4444
25961CL      CL78447   3.137   6.020   7.880  0.2657 -0.4096 -0.6657
25962CL      CL78448   6.911   6.966   2.682  0.4530  0.5073 -0.1411
25963CL      CL78449   7.425   5.591   6.180  0.2095  0.1561 -0.5672
25964CL      CL78450   0.189   6.786   8.178  0.1010  0.0382 -0.1432
25965CL      CL78451   5.045   3.717   1.650 -0.1705 -0.2105 -0.0101
25966CL      CL78452   2.882   1.134   7.196  0.0264 -0.2860 -0.0870
25967CL      CL78453   4.791   0.485   5.130 -0.2592 -0.7670  0.4769
25968CL      CL78454   0.515   5.909   6.972 -0.0593 -0.5365 -0.0323
25969CL      CL78455   7.793   0.017  12.014 -0.0321  0.1862  0.2027
25970CL      CL78456   2.647   7.133   7.061 -0.2584  0.0429 -0.6300
25971CL      CL78457   4.084   7.564  12.051 -0.0865  0.3664 -0.0566
25972CL      CL78458   2.510   5.068   0.428  0.2609 -0.3637 -0.0030
25973CL      CL78459   6.267   0.155   0.248  0.3218  0.1251 -0.2470
25974CL      CL78460   7.171   2.500   8.214  0.2918 -0.2408 -0.0709
25975CL      CL78461   5.179   5.018   2.138 -0.2625 -0.1219  0.5587
25976CL      CL78462   5.487   6.538  10.804 -0.0521 -0.1775  0.3072
25977CL      CL78463   6.979   1.642   7.652 -0.3882  0.4188  0.0729
25978CL      CL78464   5.109   5.958   0.500 -0.2518  0.1713 -0.1719
25979CL      CL78465   6.420   2.599  10.556 -0.4846 -0.0427 -0.2834
25980CL      CL78466   1.531   6.268   8.569  0.3463  0.2893 -0.3954
25981CL      CL78467   3.869   0.943   4.588  0.1185 -0.1968  0.1615
25982CL      CL78468   3.804   4.445   2.419 -0.0559  0.2500  0.2579
25983CL      CL78469   1.424   4.271   5.715  0.0665 -0.3011  0.3799
25984CL      CL78470   1.728   2.758   2.032 -0.0156 -0.3866 -0.0818
25985CL      CL78471   7.601   3.259   3.793 -0.3369  0.1440  0.0438
25986CL      CL78472   6.269   1.615   4.213 -0.3535 -0.0992  0.3061
25987CL      CL78473   1.532   5.435   6.966  0.2485  0.8308 -0.1580
25988CL      CL78474   1.749   2.241   0.220  0.6163 -0.2341  0.0964
25989CL      CL78475   4.240   0.244   1.764 -0.1308 -0.2790 -0.2541
25990CL      CL78476   1.120   2.344   2.514  0.1660 -0.2283  0.4230
25991CL      CL78477   0.384   2.823   7.043 -0.1762  0.0751 -0.0548
25992CL      CL78478   0.560   1.622  11.200 -0.3633  0.3521 -0.4594
25993CL      CL78479   1.707   1.654   4.549  0.0485 -0.0971 -0.3940
25994CL      CL78480   2.698   3.094  10.629  0.0073 -0.1134  0.1373
25995CL      CL78481   1.158   0.517   6.400  0.3027 -0.0529 -0.3333
25996CL      CL78482   4.400   4.726  10.175 -0.2648 -0.0685 -0.0326
25997CL      CL78483   0.534   2.053  10.498  0.1501 -0.0058 -0.5262
25998CL      CL78484   4.026   2.166   6.869  0.0620  0.2348 -0.0589
25999CL      CL78485   3.295   0.036   3.389  0.2103 -0.3646  0.4215
26000CL      CL78486   6.381   2.997   2.106  0.2359  0.1493 -0.1446
26001CL      CL78487   4.816   6.815   3.670 -0.1356 -0.0352 -0.0990
26002CL      CL78488   2.533   5.584   1.192  0.1761 -0.0897  0.9665
26003CL      CL78489   0.876   7.305  10.573 -0.3269  0.3228 -0.1550
26004CL      CL78490   2.912   6.821  11.704 -0.2926  0.2224  0.0393
   7.95567   7.95567  12.43073
